
     Program PWSCF v.6.8 starts on 22Sep2021 at 12:20:32 

     This program is part of the open-source Quantum ESPRESSO suite
     for quantum simulation of materials; please cite
         "P. Giannozzi et al., J. Phys.:Condens. Matter 21 395502 (2009);
         "P. Giannozzi et al., J. Phys.:Condens. Matter 29 465901 (2017);
         "P. Giannozzi et al., J. Chem. Phys. 152 154105 (2020);
          URL http://www.quantum-espresso.org", 
     in publications or presentations arising from this work. More details at
     http://www.quantum-espresso.org/quote

     Serial version
     12185 MiB available memory on the printing compute node when the environment starts

     Waiting for input...
     Reading input from standard input

     Current dimensions of program PWSCF are:
     Max number of different atomic species (ntypx) = 10
     Max number of k-points (npk) =  40000
     Max angular momentum in pseudopotentials (lmaxx) =  4
     file Ba.pbe-spn-kjpaw_psl.1.0.0.UPF: wavefunction(s)  5S 6S renormalized
     file C.pbe-n-kjpaw_psl.1.0.0.UPF: wavefunction(s)  2S 2P renormalized
     file O.pbe-n-kjpaw_psl.0.1.UPF: wavefunction(s)  2P renormalized
     Message from routine setup:
     using ibrav=0 with symmetry is DISCOURAGED, use correct ibrav instead

     G-vector sticks info
     --------------------
     sticks:   dense  smooth     PW     G-vecs:    dense   smooth      PW
     Sum        5369    2675    747               276969    97865   14507

     Using Slab Decomposition



     bravais-lattice index     =            0
     lattice parameter (alat)  =      10.0394  a.u.
     unit-cell volume          =    2050.1782 (a.u.)^3
     number of atoms/cell      =           20
     number of atomic types    =            3
     number of electrons       =       128.00
     number of Kohn-Sham states=           77
     kinetic-energy cutoff     =      50.0000  Ry
     charge density cutoff     =     400.0000  Ry
     scf convergence threshold =      4.0E-09
     mixing beta               =       0.4000
     number of iterations used =            8  plain     mixing
     Exchange-correlation= SLA  PW   PBX  PBC
                           (   1   4   3   4   0   0   0)

     celldm(1)=  10.039359  celldm(2)=   0.000000  celldm(3)=   0.000000
     celldm(4)=   0.000000  celldm(5)=   0.000000  celldm(6)=   0.000000

     crystal axes: (cart. coord. in units of alat)
               a(1) = (   1.000000   0.000000   0.000000 )  
               a(2) = (   0.000000   1.674472   0.000000 )  
               a(3) = (   0.000000   0.000000   1.210029 )  

     reciprocal axes: (cart. coord. in units 2 pi/alat)
               b(1) = (  1.000000  0.000000  0.000000 )  
               b(2) = (  0.000000  0.597203  0.000000 )  
               b(3) = (  0.000000  0.000000  0.826426 )  


     PseudoPot. # 1 for Ba read from file:
     ../pseudo/Ba.pbe-spn-kjpaw_psl.1.0.0.UPF
     MD5 check sum: c432291d3e53af55f19d5e8866385beb
     Pseudo is Projector augmented-wave + core cor, Zval = 10.0
     Generated using "atomic" code by A. Dal Corso  v.5.1
     Shape of augmentation charge: PSQ
     Using radial grid of 1251 points,  7 beta functions with: 
                l(1) =   0
                l(2) =   0
                l(3) =   0
                l(4) =   1
                l(5) =   1
                l(6) =   2
                l(7) =   2
     Q(r) pseudized with 0 coefficients 


     PseudoPot. # 2 for C  read from file:
     ../pseudo/C.pbe-n-kjpaw_psl.1.0.0.UPF
     MD5 check sum: 5d2aebdfa2cae82b50a7e79e9516da0f
     Pseudo is Projector augmented-wave + core cor, Zval =  4.0
     Generated using "atomic" code by A. Dal Corso  v.5.1
     Shape of augmentation charge: PSQ
     Using radial grid of 1073 points,  4 beta functions with: 
                l(1) =   0
                l(2) =   0
                l(3) =   1
                l(4) =   1
     Q(r) pseudized with 0 coefficients 


     PseudoPot. # 3 for O  read from file:
     ../pseudo/O.pbe-n-kjpaw_psl.0.1.UPF
     MD5 check sum: 0234752ac141de4415c5fc33072bef88
     Pseudo is Projector augmented-wave + core cor, Zval =  6.0
     Generated using "atomic" code by A. Dal Corso  v.5.0.99 svn rev. 10869
     Shape of augmentation charge: BESSEL
     Using radial grid of 1095 points,  4 beta functions with: 
                l(1) =   0
                l(2) =   0
                l(3) =   1
                l(4) =   1
     Q(r) pseudized with 0 coefficients 


     atomic species   valence    mass     pseudopotential
        Ba            10.00   137.33000     Ba( 1.00)
        C              4.00    12.01100     C ( 1.00)
        O              6.00    15.99940     O ( 1.00)

      8 Sym. Ops., with inversion, found ( 6 have fractional translation)



   Cartesian axes

     site n.     atom                  positions (alat units)
         1           Ba  tau(   1) = (   0.2500000   0.6970994   0.9134509  )
         2           Ba  tau(   2) = (   0.2500000   0.1401366   0.3084364  )
         3           Ba  tau(   3) = (   0.7500000   0.9773726   0.2965781  )
         4           Ba  tau(   4) = (   0.7500000   1.5343354   0.9015926  )
         5           C   tau(   5) = (   0.2500000   1.2675753   1.1120166  )
         6           C   tau(   6) = (   0.2500000   1.2441327   0.5070021  )
         7           C   tau(   7) = (   0.7500000   0.4068967   0.0980123  )
         8           C   tau(   8) = (   0.7500000   0.4303393   0.7030268  )
         9           O   tau(   9) = (   0.2500000   1.5088667   1.1037884  )
        10           O   tau(  10) = (   0.2500000   1.0028413   0.4987739  )
        11           O   tau(  11) = (   0.7500000   0.1656053   0.1062405  )
        12           O   tau(  12) = (   0.7500000   0.6716307   0.7112550  )
        13           O   tau(  13) = (   0.4595000   1.1451714   1.1144367  )
        14           O   tau(  14) = (   0.0405000   1.3665366   0.5094222  )
        15           O   tau(  15) = (   0.9595000   0.5293006   0.0955923  )
        16           O   tau(  16) = (   0.5405000   0.3079354   0.7006068  )
        17           O   tau(  17) = (   0.5405000   0.5293006   0.0955923  )
        18           O   tau(  18) = (   0.9595000   0.3079354   0.7006068  )
        19           O   tau(  19) = (   0.0405000   1.1451714   1.1144367  )
        20           O   tau(  20) = (   0.4595000   1.3665366   0.5094222  )

     number of k points=    36  Marzari-Vanderbilt smearing, width (Ry)=  0.0147
                       cart. coord. in units 2pi/alat
        k(    1) = (   0.0000000   0.0000000   0.0000000), wk =   0.0166667
        k(    2) = (   0.0000000   0.0000000   0.1652853), wk =   0.0333333
        k(    3) = (   0.0000000   0.0000000   0.3305706), wk =   0.0333333
        k(    4) = (   0.0000000   0.1493008   0.0000000), wk =   0.0333333
        k(    5) = (   0.0000000   0.1493008   0.1652853), wk =   0.0666667
        k(    6) = (   0.0000000   0.1493008   0.3305706), wk =   0.0666667
        k(    7) = (   0.0000000  -0.2986016   0.0000000), wk =   0.0166667
        k(    8) = (   0.0000000  -0.2986016   0.1652853), wk =   0.0333333
        k(    9) = (   0.0000000  -0.2986016   0.3305706), wk =   0.0333333
        k(   10) = (   0.1666667   0.0000000   0.0000000), wk =   0.0333333
        k(   11) = (   0.1666667   0.0000000   0.1652853), wk =   0.0666667
        k(   12) = (   0.1666667   0.0000000   0.3305706), wk =   0.0666667
        k(   13) = (   0.1666667   0.1493008   0.0000000), wk =   0.0666667
        k(   14) = (   0.1666667   0.1493008   0.1652853), wk =   0.1333333
        k(   15) = (   0.1666667   0.1493008   0.3305706), wk =   0.1333333
        k(   16) = (   0.1666667  -0.2986016   0.0000000), wk =   0.0333333
        k(   17) = (   0.1666667  -0.2986016   0.1652853), wk =   0.0666667
        k(   18) = (   0.1666667  -0.2986016   0.3305706), wk =   0.0666667
        k(   19) = (   0.3333333   0.0000000   0.0000000), wk =   0.0333333
        k(   20) = (   0.3333333   0.0000000   0.1652853), wk =   0.0666667
        k(   21) = (   0.3333333   0.0000000   0.3305706), wk =   0.0666667
        k(   22) = (   0.3333333   0.1493008   0.0000000), wk =   0.0666667
        k(   23) = (   0.3333333   0.1493008   0.1652853), wk =   0.1333333
        k(   24) = (   0.3333333   0.1493008   0.3305706), wk =   0.1333333
        k(   25) = (   0.3333333  -0.2986016   0.0000000), wk =   0.0333333
        k(   26) = (   0.3333333  -0.2986016   0.1652853), wk =   0.0666667
        k(   27) = (   0.3333333  -0.2986016   0.3305706), wk =   0.0666667
        k(   28) = (  -0.5000000   0.0000000   0.0000000), wk =   0.0166667
        k(   29) = (  -0.5000000   0.0000000   0.1652853), wk =   0.0333333
        k(   30) = (  -0.5000000   0.0000000   0.3305706), wk =   0.0333333
        k(   31) = (  -0.5000000   0.1493008   0.0000000), wk =   0.0333333
        k(   32) = (  -0.5000000   0.1493008   0.1652853), wk =   0.0666667
        k(   33) = (  -0.5000000   0.1493008   0.3305706), wk =   0.0666667
        k(   34) = (  -0.5000000  -0.2986016   0.0000000), wk =   0.0166667
        k(   35) = (  -0.5000000  -0.2986016   0.1652853), wk =   0.0333333
        k(   36) = (  -0.5000000  -0.2986016   0.3305706), wk =   0.0333333

     Dense  grid:   276969 G-vectors     FFT dimensions: (  64, 108,  80)

     Smooth grid:    97865 G-vectors     FFT dimensions: (  48,  80,  60)

     Estimated max dynamical RAM per process >       1.72 GB

     Check: negative core charge=   -0.000003

     Initial potential from superposition of free atoms

     starting charge  127.93180, renormalised to  128.00000
     Starting wfcs are   84 randomized atomic wfcs

     total cpu time spent up to now is       24.6 secs

     Self-consistent Calculation

     iteration #  1     ecut=    50.00 Ry     beta= 0.40
     Davidson diagonalization with overlap
     ethr =  1.00E-02,  avg # of iterations =  7.9

     total cpu time spent up to now is       87.0 secs

     total energy              =   -2319.19906586 Ry
     estimated scf accuracy    <       3.62522776 Ry

     iteration #  2     ecut=    50.00 Ry     beta= 0.40
     Davidson diagonalization with overlap
     ethr =  2.83E-03,  avg # of iterations =  2.0

     total cpu time spent up to now is      133.3 secs

     total energy              =   -2320.07444027 Ry
     estimated scf accuracy    <       0.23083510 Ry

     iteration #  3     ecut=    50.00 Ry     beta= 0.40
     Davidson diagonalization with overlap
     ethr =  1.80E-04,  avg # of iterations =  8.8

     negative rho (up, down):  2.225E-03 0.000E+00

     total cpu time spent up to now is      192.5 secs

     total energy              =   -2320.08519151 Ry
     estimated scf accuracy    <       0.07372768 Ry

     iteration #  4     ecut=    50.00 Ry     beta= 0.40
     Davidson diagonalization with overlap
     ethr =  5.76E-05,  avg # of iterations =  2.8

     total cpu time spent up to now is      240.5 secs

     total energy              =   -2320.09594256 Ry
     estimated scf accuracy    <       0.01781907 Ry

     iteration #  5     ecut=    50.00 Ry     beta= 0.40
     Davidson diagonalization with overlap
     ethr =  1.39E-05,  avg # of iterations =  5.6

     total cpu time spent up to now is      285.4 secs

     total energy              =   -2320.09815516 Ry
     estimated scf accuracy    <       0.00999031 Ry

     iteration #  6     ecut=    50.00 Ry     beta= 0.40
     Davidson diagonalization with overlap
     c_bands:  1 eigenvalues not converged
     ethr =  7.80E-06,  avg # of iterations =  5.2

     total cpu time spent up to now is      337.8 secs

     total energy              =   -2320.09577479 Ry
     estimated scf accuracy    <       0.01346453 Ry

     iteration #  7     ecut=    50.00 Ry     beta= 0.40
     Davidson diagonalization with overlap
     ethr =  7.80E-06,  avg # of iterations =  2.0

     total cpu time spent up to now is      384.4 secs

     total energy              =   -2320.09807492 Ry
     estimated scf accuracy    <       0.00028105 Ry

     iteration #  8     ecut=    50.00 Ry     beta= 0.40
     Davidson diagonalization with overlap
     c_bands:  1 eigenvalues not converged
     ethr =  2.20E-07,  avg # of iterations =  6.6

     total cpu time spent up to now is      443.8 secs

     total energy              =   -2320.09819543 Ry
     estimated scf accuracy    <       0.00106338 Ry

     iteration #  9     ecut=    50.00 Ry     beta= 0.40
     Davidson diagonalization with overlap
     ethr =  2.20E-07,  avg # of iterations =  1.9

     total cpu time spent up to now is      481.6 secs

     total energy              =   -2320.09811412 Ry
     estimated scf accuracy    <       0.00058476 Ry

     iteration # 10     ecut=    50.00 Ry     beta= 0.40
     Davidson diagonalization with overlap
     c_bands:  1 eigenvalues not converged
     ethr =  2.20E-07,  avg # of iterations =  2.5

     total cpu time spent up to now is      529.1 secs

     total energy              =   -2320.09819177 Ry
     estimated scf accuracy    <       0.00016248 Ry

     iteration # 11     ecut=    50.00 Ry     beta= 0.40
     Davidson diagonalization with overlap
     ethr =  1.27E-07,  avg # of iterations =  2.0

     total cpu time spent up to now is      568.7 secs

     total energy              =   -2320.09818255 Ry
     estimated scf accuracy    <       0.00006492 Ry

     iteration # 12     ecut=    50.00 Ry     beta= 0.40
     Davidson diagonalization with overlap
     ethr =  5.07E-08,  avg # of iterations =  1.8

     total cpu time spent up to now is      607.5 secs

     total energy              =   -2320.09818073 Ry
     estimated scf accuracy    <       0.00004431 Ry

     iteration # 13     ecut=    50.00 Ry     beta= 0.40
     Davidson diagonalization with overlap
     ethr =  3.46E-08,  avg # of iterations =  2.1

     total cpu time spent up to now is      654.7 secs

     total energy              =   -2320.09818725 Ry
     estimated scf accuracy    <       0.00001164 Ry

     iteration # 14     ecut=    50.00 Ry     beta= 0.40
     Davidson diagonalization with overlap
     ethr =  9.09E-09,  avg # of iterations =  1.3

     total cpu time spent up to now is      692.2 secs

     total energy              =   -2320.09818726 Ry
     estimated scf accuracy    <       0.00002705 Ry

     iteration # 15     ecut=    50.00 Ry     beta= 0.40
     Davidson diagonalization with overlap
     ethr =  9.09E-09,  avg # of iterations =  1.3

     total cpu time spent up to now is      729.9 secs

     total energy              =   -2320.09818712 Ry
     estimated scf accuracy    <       0.00000669 Ry

     iteration # 16     ecut=    50.00 Ry     beta= 0.40
     Davidson diagonalization with overlap
     ethr =  5.23E-09,  avg # of iterations =  1.0

     total cpu time spent up to now is      766.6 secs

     total energy              =   -2320.09818738 Ry
     estimated scf accuracy    <       0.00000213 Ry

     iteration # 17     ecut=    50.00 Ry     beta= 0.40
     Davidson diagonalization with overlap
     ethr =  1.66E-09,  avg # of iterations =  2.4

     total cpu time spent up to now is      807.4 secs

     total energy              =   -2320.09818749 Ry
     estimated scf accuracy    <       0.00000023 Ry

     iteration # 18     ecut=    50.00 Ry     beta= 0.40
     Davidson diagonalization with overlap
     ethr =  1.79E-10,  avg # of iterations =  4.0

     total cpu time spent up to now is      855.1 secs

     total energy              =   -2320.09818754 Ry
     estimated scf accuracy    <       0.00000011 Ry

     iteration # 19     ecut=    50.00 Ry     beta= 0.40
     Davidson diagonalization with overlap
     ethr =  8.95E-11,  avg # of iterations =  1.0

     total cpu time spent up to now is      891.8 secs

     total energy              =   -2320.09818754 Ry
     estimated scf accuracy    <          6.2E-09 Ry

     iteration # 20     ecut=    50.00 Ry     beta= 0.40
     Davidson diagonalization with overlap
     ethr =  4.85E-12,  avg # of iterations =  2.1

     total cpu time spent up to now is      940.2 secs

     total energy              =   -2320.09818754 Ry
     estimated scf accuracy    <       0.00000004 Ry

     iteration # 21     ecut=    50.00 Ry     beta= 0.40
     Davidson diagonalization with overlap
     ethr =  4.85E-12,  avg # of iterations =  2.1

     total cpu time spent up to now is      982.3 secs

     total energy              =   -2320.09818754 Ry
     estimated scf accuracy    <       0.00000002 Ry

     iteration # 22     ecut=    50.00 Ry     beta= 0.40
     Davidson diagonalization with overlap
     ethr =  4.85E-12,  avg # of iterations =  2.0

     total cpu time spent up to now is     1022.4 secs

     End of self-consistent calculation

          k = 0.0000 0.0000 0.0000 ( 12277 PWs)   bands (ev):

   -19.6314 -19.5453 -19.5190 -19.5020 -16.3044 -16.1840 -16.1759 -16.1361
   -13.0738 -13.0696 -13.0645 -13.0447 -13.0101 -12.9978 -12.9182 -12.9007
    -5.3411  -5.0909  -5.0825  -4.9819  -4.9698  -4.8702  -4.8136  -4.7776
    -4.7457  -4.7043  -4.6882  -4.6349  -2.0937  -1.8769  -1.3796  -1.1767
    -0.8513  -0.5364  -0.3784  -0.3448  -0.2569  -0.0268   0.0223   0.1439
     0.1553   0.2006   0.5170   0.6895   3.1687   3.2307   3.5120   3.6211
     3.6320   3.6883   3.9030   4.0112   4.0355   4.0398   4.0782   4.1351
     4.1387   4.2688   4.4175   4.4478   5.0370   5.2763   5.4838   5.5078
     9.9919  10.6470  11.1477  11.2245  11.5354  11.5546  11.9190  11.9833
    12.2140  12.5130  12.6663  12.8711  12.9077

          k = 0.0000 0.0000 0.1653 ( 12231 PWs)   bands (ev):

   -19.6193 -19.5427 -19.5214 -19.5145 -16.2906 -16.1888 -16.1748 -16.1470
   -13.0800 -13.0680 -13.0573 -13.0332 -13.0135 -12.9883 -12.9312 -12.9092
    -5.3007  -5.0627  -5.0486  -5.0078  -5.0025  -4.8664  -4.7783  -4.7737
    -4.7509  -4.7418  -4.7272  -4.6694  -1.9892  -1.8538  -1.4430  -1.2492
    -0.7198  -0.4586  -0.3314  -0.2715  -0.2153  -0.0187   0.0064   0.0947
     0.1011   0.1686   0.4234   0.5177   3.1987   3.3162   3.4752   3.6198
     3.6978   3.8083   3.8902   3.9335   4.0368   4.0623   4.0834   4.1231
     4.1387   4.2049   4.3519   4.3788   5.0557   5.2494   5.4903   5.5114
    10.1220  10.8433  11.0453  11.1690  11.5626  11.6743  11.8679  12.0131
    12.0137  12.5394  12.6757  12.6967  13.0070

          k = 0.0000 0.0000 0.3306 ( 12238 PWs)   bands (ev):

   -19.5874 -19.5476 -19.5356 -19.5278 -16.2545 -16.2124 -16.1715 -16.1641
   -13.0808 -13.0755 -13.0400 -13.0239 -13.0027 -12.9640 -12.9634 -12.9330
    -5.1945  -5.0879  -5.0123  -4.9642  -4.9568  -4.9487  -4.8493  -4.8366
    -4.7642  -4.7533  -4.7152  -4.6908  -1.7744  -1.7615  -1.5720  -1.4382
    -0.3745  -0.2644  -0.2079  -0.1192  -0.0903  -0.0538  -0.0379  -0.0170
     0.0132   0.0876   0.1021   0.1950   3.2709   3.3637   3.5399   3.7891
     3.7944   3.8565   3.8864   3.9129   3.9861   4.0278   4.0475   4.1133
     4.1291   4.1469   4.2066   4.2315   5.1113   5.1851   5.5036   5.5126
    10.4723  10.8396  10.9548  11.0721  11.6547  11.7850  12.0874  12.1331
    12.1429  12.3433  12.4789  12.6113  12.6619

          k = 0.0000 0.1493 0.0000 ( 12286 PWs)   bands (ev):

   -19.6212 -19.5638 -19.5109 -19.5022 -16.2855 -16.1947 -16.1771 -16.1432
   -13.0807 -13.0735 -13.0488 -13.0387 -13.0146 -13.0060 -12.9143 -12.9024
    -5.2934  -5.0827  -5.0487  -4.9972  -4.9490  -4.8622  -4.8539  -4.8405
    -4.7405  -4.7069  -4.6869  -4.6772  -1.9912  -1.7766  -1.4926  -1.2850
    -0.8007  -0.5579  -0.3575  -0.2269  -0.2235  -0.0608   0.0415   0.0497
     0.1043   0.1757   0.5545   0.6701   3.2827   3.2834   3.5610   3.5649
     3.6619   3.6627   3.8780   3.9171   4.0028   4.0525   4.0898   4.1088
     4.1099   4.3091   4.3983   4.4036   5.1073   5.3175   5.4214   5.4808
    10.1424  10.8531  10.9334  11.3213  11.5299  11.6548  11.7947  11.8463
    12.0296  12.3121  12.7702  12.9319  12.9505

          k = 0.0000 0.1493 0.1653 ( 12245 PWs)   bands (ev):

   -19.6101 -19.5587 -19.5159 -19.5137 -16.2736 -16.1917 -16.1827 -16.1532
   -13.0814 -13.0714 -13.0477 -13.0276 -13.0179 -12.9965 -12.9264 -12.9115
    -5.2666  -5.0715  -5.0173  -5.0144  -4.9842  -4.8630  -4.8401  -4.8158
    -4.7752  -4.7267  -4.7186  -4.6585  -1.9156  -1.7676  -1.5310  -1.3394
    -0.6823  -0.4698  -0.3090  -0.1911  -0.1867  -0.0478   0.0183   0.0315
     0.0634   0.1461   0.4419   0.5073   3.3062   3.3645   3.5354   3.6198
     3.6299   3.7920   3.8774   3.9116   4.0081   4.0280   4.0674   4.1051
     4.1078   4.2469   4.3374   4.3383   5.1236   5.2935   5.4294   5.4786
    10.2441  10.8787  11.0250  11.2563  11.5417  11.7110  11.8031  11.8391
    12.1419  12.4492  12.6415  12.7143  12.9666

          k = 0.0000 0.1493 0.3306 ( 12238 PWs)   bands (ev):

   -19.5807 -19.5465 -19.5426 -19.5289 -16.2423 -16.2054 -16.1836 -16.1711
   -13.0792 -13.0739 -13.0396 -13.0273 -12.9987 -12.9758 -12.9528 -12.9358
    -5.1908  -5.0971  -5.0588  -4.9905  -4.9326  -4.9071  -4.8256  -4.8170
    -4.7981  -4.7565  -4.7216  -4.6762  -1.7423  -1.7296  -1.6061  -1.4898
    -0.3650  -0.2517  -0.1870  -0.1004  -0.0996  -0.0566  -0.0326  -0.0189
    -0.0055   0.0703   0.1199   0.1757   3.3612   3.4365   3.5771   3.7469
     3.7740   3.8379   3.8493   3.9069   3.9570   4.0106   4.0567   4.0816
     4.1100   4.1548   4.1978   4.1989   5.1713   5.2360   5.4482   5.4676
    10.5363  10.8599  10.9194  11.0701  11.6264  11.7664  12.0750  12.1338
    12.3398  12.4303  12.5774  12.5900  12.7355

          k = 0.0000-0.2986 0.0000 ( 12238 PWs)   bands (ev):

   -19.5950 -19.5950 -19.5042 -19.5042 -16.2400 -16.2400 -16.1602 -16.1602
   -13.0800 -13.0800 -13.0284 -13.0284 -13.0233 -13.0233 -12.9074 -12.9074
    -5.1735  -5.1735  -4.9657  -4.9657  -4.9610  -4.9610  -4.8298  -4.8298
    -4.7700  -4.7700  -4.6884  -4.6884  -1.7458  -1.7458  -1.5344  -1.5344
    -0.6785  -0.6785  -0.1646  -0.1646  -0.1425  -0.1425  -0.0479  -0.0479
     0.1140   0.1140   0.6191   0.6191   3.4164   3.4164   3.5586   3.5586
     3.6243   3.6243   3.8480   3.8480   3.9524   3.9524   4.0931   4.0931
     4.2651   4.2651   4.3649   4.3649   5.2674   5.2674   5.4067   5.4067
    10.5167  10.5167  11.3547  11.3547  11.5466  11.5466  11.6428  11.6428
    12.0150  12.0150  13.0186  13.0424  13.0425

          k = 0.0000-0.2986 0.1653 ( 12264 PWs)   bands (ev):

   -19.5864 -19.5864 -19.5129 -19.5129 -16.2326 -16.2326 -16.1680 -16.1680
   -13.0783 -13.0783 -13.0307 -13.0307 -13.0132 -13.0132 -12.9179 -12.9179
    -5.1733  -5.1733  -4.9608  -4.9608  -4.9366  -4.9366  -4.8903  -4.8903
    -4.7158  -4.7158  -4.7101  -4.7101  -1.7305  -1.7305  -1.5556  -1.5556
    -0.5763  -0.5763  -0.1497  -0.1497  -0.1174  -0.1174  -0.0509  -0.0509
     0.0900   0.0900   0.4778   0.4778   3.4888   3.4888   3.5500   3.5500
     3.6462   3.6462   3.8730   3.8730   3.9557   3.9557   4.0808   4.0808
     4.2217   4.2217   4.3003   4.3003   5.2783   5.2783   5.3930   5.3930
    10.5447  10.5447  11.3708  11.3708  11.5263  11.5263  11.7921  11.7921
    12.1372  12.1372  12.8837  12.8850  12.8850

          k = 0.0000-0.2986 0.3306 ( 12236 PWs)   bands (ev):

   -19.5639 -19.5639 -19.5356 -19.5356 -16.2129 -16.2129 -16.1882 -16.1882
   -13.0751 -13.0751 -13.0348 -13.0348 -12.9885 -12.9885 -12.9431 -12.9431
    -5.1453  -5.1453  -5.0670  -5.0670  -4.8723  -4.8723  -4.8123  -4.8123
    -4.7851  -4.7851  -4.7032  -4.7032  -1.6820  -1.6820  -1.6128  -1.6128
    -0.3073  -0.3073  -0.1263  -0.1263  -0.0530  -0.0530  -0.0527  -0.0527
     0.0271   0.0271   0.1447   0.1447   3.5584   3.5584   3.6462   3.6462
     3.6725   3.6725   3.8872   3.8872   3.9691   3.9691   4.0864   4.0864
     4.1086   4.1086   4.1776   4.1776   5.3057   5.3057   5.3609   5.3609
    10.6908  10.6908  11.0216  11.0216  11.6850  11.6850  12.1571  12.1571
    12.4571  12.4571  12.7282  12.7282  12.7648

          k = 0.1667 0.0000 0.0000 ( 12213 PWs)   bands (ev):

   -19.6190 -19.5400 -19.5212 -19.5025 -16.3112 -16.1997 -16.1781 -16.1367
   -13.0784 -13.0779 -13.0592 -13.0509 -12.9966 -12.9946 -12.9371 -12.9176
    -5.2825  -5.0532  -5.0411  -4.9823  -4.9459  -4.8984  -4.8044  -4.7562
    -4.7335  -4.7094  -4.6966  -4.6640  -1.9638  -1.8596  -1.3412  -1.2283
    -0.8121  -0.5346  -0.4269  -0.3818  -0.1584  -0.0532   0.0173   0.0979
     0.1355   0.1390   0.5266   0.6828   3.2263   3.3161   3.4749   3.5833
     3.6438   3.6750   3.9274   3.9390   3.9992   4.0246   4.0492   4.0735
     4.0959   4.2645   4.3830   4.4285   5.0173   5.1926   5.4087   5.4272
    10.1349  10.8825  11.1419  11.2824  11.5352  11.6012  11.8032  11.9006
    12.1647  12.3375  12.7832  12.8612  12.8998

          k = 0.1667 0.0000 0.1653 ( 12248 PWs)   bands (ev):

   -19.6080 -19.5382 -19.5229 -19.5137 -16.2965 -16.1961 -16.1850 -16.1490
   -13.0882 -13.0778 -13.0634 -13.0281 -13.0007 -12.9869 -12.9437 -12.9251
    -5.2580  -5.0276  -5.0047  -5.0015  -4.9635  -4.9175  -4.7854  -4.7570
    -4.7469  -4.7404  -4.7202  -4.6569  -1.8904  -1.8334  -1.4038  -1.2913
    -0.6866  -0.4649  -0.3746  -0.3004  -0.1352  -0.0418  -0.0016   0.0682
     0.0820   0.1090   0.4329   0.5159   3.2087   3.4292   3.4489   3.5480
     3.7209   3.7821   3.9096   3.9222   3.9914   3.9917   4.0715   4.0735
     4.0908   4.2114   4.3314   4.3667   5.0321   5.1730   5.4117   5.4280
    10.2611  11.0355  11.0468  11.2545  11.5553  11.7073  11.8082  11.9306
    12.0775  12.5177  12.6304  12.8007  12.9966

          k = 0.1667 0.0000 0.3306 ( 12241 PWs)   bands (ev):

   -19.5792 -19.5434 -19.5330 -19.5274 -16.2581 -16.2127 -16.1863 -16.1710
   -13.0932 -13.0906 -13.0441 -13.0252 -12.9883 -12.9681 -12.9623 -12.9445
    -5.1840  -5.0802  -4.9943  -4.9814  -4.9397  -4.8868  -4.8386  -4.7869
    -4.7659  -4.7504  -4.7077  -4.6829  -1.7464  -1.7226  -1.5372  -1.4519
    -0.3497  -0.2912  -0.2401  -0.1124  -0.1124  -0.0529  -0.0438  -0.0239
     0.0012   0.0669   0.1103   0.2026   3.2402   3.3225   3.6345   3.7145
     3.8257   3.8430   3.8806   3.9140   3.9565   3.9955   4.0217   4.0550
     4.0926   4.1013   4.2363   4.2520   5.0728   5.1261   5.4191   5.4261
    10.6010  10.9371  10.9841  11.1683  11.6787  11.7981  12.0513  12.1418
    12.1865  12.2940  12.6206  12.6538  12.7520

          k = 0.1667 0.1493 0.0000 ( 12241 PWs)   bands (ev):

   -19.6098 -19.5577 -19.5126 -19.5030 -16.2948 -16.2159 -16.1722 -16.1428
   -13.0843 -13.0841 -13.0477 -13.0414 -13.0023 -13.0001 -12.9328 -12.9192
    -5.2400  -5.0523  -5.0114  -4.9615  -4.9563  -4.8881  -4.8428  -4.8190
    -4.7610  -4.7059  -4.6863  -4.6734  -1.8747  -1.7687  -1.4390  -1.3256
    -0.7677  -0.5487  -0.4132  -0.2757  -0.1258  -0.0993   0.0261   0.0388
     0.0756   0.1311   0.5591   0.6649   3.3052   3.3584   3.5034   3.6101
     3.6161   3.6464   3.8461   3.8928   3.9404   4.0195   4.0597   4.1060
     4.1089   4.3011   4.3109   4.4270   5.0798   5.2439   5.3557   5.4063
    10.2679  10.9649  11.0630  11.3599  11.4929  11.6926  11.7291  11.8298
    12.0336  12.1922  12.8097  12.9155  12.9835

          k = 0.1667 0.1493 0.1653 ( 12247 PWs)   bands (ev):

   -19.5997 -19.5533 -19.5168 -19.5133 -16.2817 -16.2108 -16.1798 -16.1543
   -13.0873 -13.0815 -13.0533 -13.0281 -13.0029 -12.9932 -12.9400 -12.9271
    -5.2261  -5.0433  -5.0104  -4.9778  -4.9481  -4.9129  -4.8335  -4.8032
    -4.7613  -4.7121  -4.7028  -4.6661  -1.8238  -1.7560  -1.4811  -1.3729
    -0.6518  -0.4633  -0.3624  -0.2318  -0.1185  -0.0741  -0.0066   0.0277
     0.0547   0.0989   0.4483   0.5060   3.2828   3.4759   3.4875   3.5600
     3.6690   3.7534   3.8542   3.8899   3.9438   3.9955   4.0672   4.0807
     4.1126   4.2446   4.2633   4.3641   5.0935   5.2254   5.3606   5.4026
    10.3662  10.9092  11.1727  11.3394  11.5233  11.6798  11.8144  11.8717
    12.1185  12.4071  12.6697  12.8265  12.9096

          k = 0.1667 0.1493 0.3306 ( 12240 PWs)   bands (ev):

   -19.5733 -19.5428 -19.5393 -19.5279 -16.2475 -16.2067 -16.1967 -16.1772
   -13.0877 -13.0847 -13.0446 -13.0301 -12.9881 -12.9768 -12.9572 -12.9470
    -5.1738  -5.0873  -5.0413  -5.0079  -4.9139  -4.8528  -4.8367  -4.7838
    -4.7601  -4.7491  -4.7115  -4.6787  -1.7077  -1.7010  -1.5691  -1.4971
    -0.3406  -0.2669  -0.2259  -0.1246  -0.1189  -0.0599  -0.0393  -0.0176
    -0.0002   0.0503   0.1264   0.1850   3.3123   3.3838   3.6748   3.6943
     3.7358   3.8154   3.8753   3.8929   3.9178   3.9844   4.0462   4.0643
     4.0856   4.1274   4.1867   4.2344   5.1310   5.1809   5.3740   5.3906
    10.6476  10.9060  10.9933  11.1546  11.6617  11.7799  12.0469  12.1635
    12.2938  12.4359  12.6292  12.6939  12.8409

          k = 0.1667-0.2986 0.0000 ( 12264 PWs)   bands (ev):

   -19.5860 -19.5860 -19.5057 -19.5057 -16.2553 -16.2553 -16.1576 -16.1576
   -13.0880 -13.0880 -13.0347 -13.0347 -13.0081 -13.0081 -12.9249 -12.9249
    -5.1341  -5.1341  -4.9422  -4.9422  -4.9300  -4.9300  -4.8690  -4.8690
    -4.7647  -4.7647  -4.6741  -4.6741  -1.6601  -1.6601  -1.5499  -1.5499
    -0.6597  -0.6597  -0.2439  -0.2439  -0.1166  -0.1166  -0.0383  -0.0383
     0.0883   0.0883   0.6178   0.6178   3.4323   3.4323   3.5387   3.5387
     3.6305   3.6305   3.7647   3.7647   3.9686   3.9686   4.0898   4.0898
     4.2069   4.2069   4.3695   4.3695   5.2212   5.2212   5.3405   5.3405
    10.5992  10.5992  11.4440  11.4440  11.5391  11.5391  11.6843  11.6843
    11.9732  11.9732  12.9028  12.9028  13.1323

          k = 0.1667-0.2986 0.1653 ( 12256 PWs)   bands (ev):

   -19.5784 -19.5784 -19.5133 -19.5133 -16.2462 -16.2462 -16.1672 -16.1672
   -13.0850 -13.0850 -13.0367 -13.0367 -13.0019 -13.0019 -12.9329 -12.9329
    -5.1392  -5.1392  -4.9747  -4.9747  -4.9068  -4.9068  -4.8690  -4.8690
    -4.7278  -4.7278  -4.6902  -4.6902  -1.6577  -1.6577  -1.5663  -1.5663
    -0.5579  -0.5579  -0.2212  -0.2212  -0.1095  -0.1095  -0.0319  -0.0319
     0.0665   0.0665   0.4795   0.4795   3.4464   3.4464   3.5813   3.5813
     3.6403   3.6403   3.7907   3.7907   3.9805   3.9805   4.0758   4.0758
     4.1736   4.1736   4.3082   4.3082   5.2304   5.2304   5.3280   5.3280
    10.6249  10.6249  11.4029  11.4029  11.5415  11.5415  11.8799  11.8799
    12.1223  12.1223  12.8010  12.8011  12.9884

          k = 0.1667-0.2986 0.3306 ( 12254 PWs)   bands (ev):

   -19.5584 -19.5584 -19.5334 -19.5334 -16.2222 -16.2222 -16.1919 -16.1919
   -13.0796 -13.0796 -13.0409 -13.0409 -12.9855 -12.9855 -12.9520 -12.9520
    -5.1247  -5.1247  -5.0654  -5.0654  -4.8592  -4.8592  -4.7947  -4.7947
    -4.7575  -4.7575  -4.6960  -4.6960  -1.6419  -1.6419  -1.6042  -1.6042
    -0.2935  -0.2935  -0.1721  -0.1721  -0.0988  -0.0988  -0.0144  -0.0144
     0.0167   0.0167   0.1527   0.1527   3.4951   3.4951   3.5519   3.5519
     3.7870   3.7870   3.8469   3.8469   3.9643   3.9643   4.0395   4.0395
     4.1198   4.1198   4.1853   4.1853   5.2544   5.2544   5.2986   5.2986
    10.7651  10.7651  11.0874  11.0874  11.7091  11.7091  12.1324  12.1324
    12.5134  12.5137  12.7268  12.7277  12.8320

          k = 0.3333 0.0000 0.0000 ( 12270 PWs)   bands (ev):

   -19.5883 -19.5313 -19.5274 -19.5056 -16.3183 -16.2536 -16.1641 -16.1402
   -13.0917 -13.0847 -13.0432 -13.0390 -12.9981 -12.9904 -12.9748 -12.9566
    -5.1415  -4.9723  -4.9677  -4.9616  -4.9015  -4.8834  -4.7855  -4.7808
    -4.7503  -4.7258  -4.7168  -4.7103  -1.7863  -1.6615  -1.3913  -1.2916
    -0.6967  -0.5372  -0.4211  -0.4207  -0.1511  -0.1316  -0.0232   0.0270
     0.0994   0.1100   0.5547   0.6540   3.3540   3.3908   3.4837   3.5362
     3.5392   3.7005   3.7244   3.7538   3.9757   3.9893   4.0173   4.0253
     4.1238   4.2696   4.3614   4.3652   5.0030   5.0827   5.2368   5.2650
    10.4698  11.0823  11.3874  11.4296  11.4519  11.5737  11.6633  11.7412
    12.0370  12.1565  12.9634  13.0805  13.1129

          k = 0.3333 0.0000 0.1653 ( 12221 PWs)   bands (ev):

   -19.5805 -19.5308 -19.5277 -19.5135 -16.3026 -16.2444 -16.1756 -16.1549
   -13.0987 -13.0746 -13.0720 -13.0183 -13.0047 -12.9800 -12.9744 -12.9573
    -5.1414  -4.9902  -4.9552  -4.9278  -4.9040  -4.8934  -4.8320  -4.7817
    -4.7407  -4.7270  -4.7102  -4.6803  -1.7582  -1.6473  -1.4212  -1.3464
    -0.5908  -0.4760  -0.3725  -0.3311  -0.1392  -0.1209  -0.0246   0.0144
     0.0490   0.0621   0.4561   0.5043   3.2980   3.3547   3.4999   3.5963
     3.6495   3.6637   3.7824   3.7925   3.9745   3.9817   4.0121   4.0187
     4.1068   4.2316   4.3180   4.3292   5.0117   5.0751   5.2370   5.2608
    10.5818  11.0366  11.2751  11.4778  11.5790  11.6457  11.7112  11.8630
    12.0821  12.3912  12.7752  12.9444  13.0349

          k = 0.3333 0.0000 0.3306 ( 12224 PWs)   bands (ev):

   -19.5598 -19.5344 -19.5297 -19.5283 -16.2613 -16.2199 -16.2112 -16.1874
   -13.1028 -13.0945 -13.0563 -13.0347 -12.9890 -12.9783 -12.9675 -12.9596
    -5.1182  -5.0583  -4.9332  -4.9204  -4.8730  -4.8669  -4.8529  -4.8091
    -4.7478  -4.7228  -4.6890  -4.6706  -1.6684  -1.6104  -1.4887  -1.4733
    -0.3461  -0.2754  -0.2544  -0.1581  -0.1458  -0.0694  -0.0639  -0.0390
    -0.0250   0.0038   0.1407   0.2125   3.2554   3.2737   3.5940   3.6187
     3.7407   3.7685   3.8661   3.8939   3.9444   3.9558   3.9628   4.0133
     4.0706   4.1420   4.2468   4.2613   5.0322   5.0558   5.2409   5.2506
    10.8599  11.0776  11.0908  11.3597  11.6386  11.7688  11.9242  12.1072
    12.2878  12.5350  12.7278  12.7313  12.8421

          k = 0.3333 0.1493 0.0000 ( 12239 PWs)   bands (ev):

   -19.5818 -19.5456 -19.5184 -19.5071 -16.3087 -16.2629 -16.1606 -16.1437
   -13.0949 -13.0893 -13.0366 -13.0355 -12.9998 -12.9956 -12.9696 -12.9568
    -5.1151  -4.9902  -4.9559  -4.9493  -4.8966  -4.8721  -4.8281  -4.7959
    -4.7743  -4.7206  -4.7144  -4.7003  -1.7277  -1.6054  -1.4490  -1.3446
    -0.6697  -0.5175  -0.4811  -0.3041  -0.2248  -0.1171  -0.0139   0.0386
     0.0537   0.1052   0.5724   0.6415   3.2927   3.4197   3.4983   3.5150
     3.5791   3.6454   3.7168   3.7235   3.9900   4.0146   4.0250   4.0514
     4.0852   4.2503   4.3195   4.4101   5.0420   5.1429   5.2084   5.2658
    10.5543  10.9913  11.3643  11.3845  11.4587  11.6530  11.7242  11.7664
    11.9353  12.1451  12.9197  12.9320  13.1274

          k = 0.3333 0.1493 0.1653 ( 12247 PWs)   bands (ev):

   -19.5746 -19.5429 -19.5209 -19.5142 -16.2940 -16.2529 -16.1727 -16.1581
   -13.0963 -13.0833 -13.0540 -13.0228 -13.0027 -12.9907 -12.9696 -12.9603
    -5.1202  -4.9957  -4.9844  -4.9473  -4.8996  -4.8646  -4.8289  -4.7760
    -4.7475  -4.7303  -4.7122  -4.6859  -1.7090  -1.6026  -1.4705  -1.3901
    -0.5654  -0.4346  -0.4294  -0.2629  -0.2002  -0.1131  -0.0159   0.0113
     0.0361   0.0590   0.4637   0.4974   3.2885   3.4043   3.4854   3.5678
     3.6226   3.6311   3.7292   3.8330   3.9810   3.9884   4.0140   4.0451
     4.0964   4.2184   4.2733   4.3589   5.0514   5.1337   5.2105   5.2594
    10.6411  10.9582  11.3163  11.4307  11.5227  11.5869  11.8442  11.9604
    12.0187  12.4179  12.7486  12.8503  13.0967

          k = 0.3333 0.1493 0.3306 ( 12237 PWs)   bands (ev):

   -19.5560 -19.5362 -19.5327 -19.5275 -16.2553 -16.2261 -16.2079 -16.1910
   -13.0936 -13.0846 -13.0527 -13.0339 -12.9940 -12.9845 -12.9728 -12.9662
    -5.1074  -5.0570  -4.9942  -4.9829  -4.8587  -4.8221  -4.8087  -4.7870
    -4.7437  -4.7285  -4.6955  -4.6742  -1.6438  -1.5914  -1.5160  -1.4936
    -0.3182  -0.2802  -0.2533  -0.1930  -0.1391  -0.0891  -0.0453  -0.0301
    -0.0170   0.0025   0.1495   0.1999   3.2860   3.3242   3.5765   3.5857
     3.6559   3.7522   3.8534   3.8640   3.9180   3.9834   4.0055   4.0645
     4.0810   4.1429   4.1949   4.2486   5.0769   5.1087   5.2220   5.2420
    10.8705  11.0177  11.1162  11.2963  11.6516  11.7621  11.9581  12.0765
    12.3887  12.5835  12.6769  12.8237  12.9113

          k = 0.3333-0.2986 0.0000 ( 12250 PWs)   bands (ev):

   -19.5651 -19.5651 -19.5114 -19.5114 -16.2857 -16.2857 -16.1523 -16.1523
   -13.0954 -13.0954 -13.0317 -13.0317 -13.0004 -13.0004 -12.9614 -12.9614
    -5.0493  -5.0493  -4.9343  -4.9343  -4.8832  -4.8832  -4.8447  -4.8447
    -4.7495  -4.7495  -4.7029  -4.7029  -1.5879  -1.5879  -1.4734  -1.4734
    -0.6020  -0.6020  -0.3525  -0.3525  -0.1821  -0.1821   0.0085   0.0085
     0.0702   0.0702   0.6094   0.6094   3.3260   3.3260   3.5235   3.5235
     3.5913   3.5913   3.7161   3.7161   4.0082   4.0082   4.0487   4.0487
     4.1342   4.1342   4.3851   4.3851   5.1295   5.1295   5.2342   5.2342
    10.7668  10.7668  11.3330  11.3330  11.5800  11.5800  11.8121  11.8121
    12.0002  12.0002  12.8782  12.8782  13.2317

          k = 0.3333-0.2986 0.1653 ( 12240 PWs)   bands (ev):

   -19.5599 -19.5599 -19.5164 -19.5164 -16.2734 -16.2734 -16.1655 -16.1655
   -13.0895 -13.0895 -13.0355 -13.0355 -12.9982 -12.9982 -12.9665 -12.9665
    -5.0607  -5.0607  -4.9806  -4.9806  -4.8627  -4.8627  -4.8081  -4.8081
    -4.7278  -4.7278  -4.7106  -4.7106  -1.5898  -1.5898  -1.4958  -1.4958
    -0.5049  -0.5049  -0.3218  -0.3218  -0.1662  -0.1662  -0.0001  -0.0001
     0.0426   0.0426   0.4808   0.4808   3.3569   3.3569   3.5267   3.5267
     3.5622   3.5622   3.7993   3.7993   3.9940   3.9940   4.0456   4.0456
     4.1189   4.1189   4.3309   4.3309   5.1368   5.1368   5.2241   5.2241
    10.7913  10.7913  11.3751  11.3751  11.5161  11.5161  11.9258  11.9258
    12.2668  12.2668  12.7697  12.7698  13.1515

          k = 0.3333-0.2986 0.3306 ( 12238 PWs)   bands (ev):

   -19.5464 -19.5464 -19.5297 -19.5297 -16.2408 -16.2408 -16.1996 -16.1996
   -13.0768 -13.0768 -13.0446 -13.0446 -12.9916 -12.9916 -12.9781 -12.9781
    -5.0662  -5.0662  -5.0387  -5.0387  -4.8254  -4.8254  -4.7754  -4.7754
    -4.7316  -4.7316  -4.6915  -4.6915  -1.5818  -1.5818  -1.5426  -1.5426
    -0.2758  -0.2758  -0.2457  -0.2457  -0.1264  -0.1264  -0.0250  -0.0250
    -0.0026  -0.0026   0.1721   0.1721   3.3955   3.3955   3.4672   3.4672
     3.6869   3.6869   3.8580   3.8580   3.9564   3.9564   4.0623   4.0623
     4.1034   4.1034   4.2051   4.2051   5.1609   5.1609   5.1969   5.1969
    10.9217  10.9217  11.1885  11.1885  11.7036  11.7036  12.0272  12.0272
    12.5612  12.5612  12.7435  12.7435  12.9728

          k =-0.5000 0.0000 0.0000 ( 12242 PWs)   bands (ev):

   -19.5547 -19.5547 -19.5141 -19.5141 -16.3011 -16.3011 -16.1495 -16.1495
   -13.0916 -13.0916 -13.0206 -13.0206 -13.0073 -13.0073 -12.9863 -12.9863
    -4.9998  -4.9998  -4.9136  -4.9136  -4.8742  -4.8742  -4.8124  -4.8124
    -4.7672  -4.7672  -4.7134  -4.7134  -1.6160  -1.6160  -1.3854  -1.3854
    -0.5735  -0.5735  -0.3518  -0.3518  -0.3055  -0.3055   0.0594   0.0594
     0.0677   0.0677   0.6020   0.6020   3.4480   3.4480   3.5113   3.5113
     3.5182   3.5182   3.6202   3.6202   3.9746   3.9746   4.0317   4.0317
     4.2526   4.2526   4.3087   4.3087   5.0743   5.0743   5.1238   5.1238
    10.8357  10.8357  11.4097  11.4097  11.5157  11.5157  11.8255  11.8255
    11.9835  11.9835  13.0459  13.0460  13.2136

          k =-0.5000 0.0000 0.1653 ( 12260 PWs)   bands (ev):

   -19.5507 -19.5507 -19.5179 -19.5179 -16.2871 -16.2871 -16.1644 -16.1644
   -13.0907 -13.0907 -13.0431 -13.0431 -12.9900 -12.9900 -12.9828 -12.9828
    -5.0017  -5.0017  -4.9395  -4.9395  -4.8652  -4.8652  -4.8099  -4.8099
    -4.7420  -4.7420  -4.7108  -4.7108  -1.6062  -1.6062  -1.4158  -1.4158
    -0.4912  -0.4912  -0.2957  -0.2957  -0.2751  -0.2751   0.0255   0.0255
     0.0309   0.0309   0.4817   0.4817   3.3931   3.3931   3.4509   3.4509
     3.6200   3.6200   3.7094   3.7094   3.9738   3.9738   4.0201   4.0201
     4.2195   4.2195   4.2801   4.2801   5.0784   5.0784   5.1186   5.1186
    10.8976  10.8976  11.4248  11.4248  11.4878  11.4878  11.8959  11.8959
    12.2161  12.2161  12.8757  12.8757  13.1262

          k =-0.5000 0.0000 0.3306 ( 12214 PWs)   bands (ev):

   -19.5404 -19.5404 -19.5279 -19.5279 -16.2499 -16.2499 -16.2031 -16.2031
   -13.0845 -13.0845 -13.0683 -13.0683 -12.9779 -12.9779 -12.9772 -12.9772
    -4.9988  -4.9988  -4.9782  -4.9782  -4.8410  -4.8410  -4.8173  -4.8173
    -4.7109  -4.7109  -4.7043  -4.7043  -1.5647  -1.5647  -1.4899  -1.4899
    -0.3114  -0.3114  -0.2172  -0.2172  -0.1139  -0.1139  -0.0673  -0.0673
    -0.0409  -0.0409   0.1916   0.1916   3.3617   3.3617   3.3848   3.3848
     3.7782   3.7782   3.8376   3.8376   3.9460   3.9460   3.9765   3.9765
     4.1731   4.1731   4.2107   4.2107   5.0900   5.0900   5.1054   5.1054
    11.0627  11.0627  11.2642  11.2642  11.7070  11.7070  11.9338  11.9338
    12.5998  12.5998  12.7230  12.7231  12.9167

          k =-0.5000 0.1493 0.0000 ( 12250 PWs)   bands (ev):

   -19.5529 -19.5529 -19.5159 -19.5159 -16.3010 -16.3010 -16.1495 -16.1495
   -13.0939 -13.0939 -13.0223 -13.0223 -13.0061 -13.0061 -12.9834 -12.9834
    -4.9987  -4.9987  -4.9320  -4.9320  -4.8616  -4.8616  -4.7906  -4.7906
    -4.7861  -4.7861  -4.7151  -4.7151  -1.6123  -1.6123  -1.3782  -1.3782
    -0.5656  -0.5656  -0.4027  -0.4027  -0.2422  -0.2422   0.0233   0.0233
     0.0867   0.0867   0.6016   0.6016   3.3497   3.3497   3.4487   3.4487
     3.5518   3.5518   3.7044   3.7044   3.9794   3.9794   4.0674   4.0674
     4.1594   4.1594   4.3642   4.3642   5.0794   5.0794   5.1597   5.1597
    10.8453  10.8453  11.3240  11.3240  11.5464  11.5464  11.7642  11.7642
    12.0999  12.0999  12.9339  12.9339  13.3450

          k =-0.5000 0.1493 0.1653 ( 12242 PWs)   bands (ev):

   -19.5493 -19.5493 -19.5193 -19.5193 -16.2871 -16.2871 -16.1645 -16.1645
   -13.0897 -13.0897 -13.0344 -13.0344 -13.0008 -13.0008 -12.9817 -12.9817
    -5.0074  -5.0074  -4.9584  -4.9584  -4.8477  -4.8477  -4.7918  -4.7918
    -4.7555  -4.7555  -4.7101  -4.7101  -1.6032  -1.6032  -1.4109  -1.4109
    -0.4793  -0.4793  -0.3568  -0.3568  -0.2137  -0.2137  -0.0029  -0.0029
     0.0496   0.0496   0.4812   0.4812   3.3559   3.3559   3.4556   3.4556
     3.5343   3.5343   3.7952   3.7952   3.9636   3.9636   4.0623   4.0623
     4.1397   4.1397   4.3213   4.3213   5.0851   5.0851   5.1524   5.1524
    10.8916  10.8916  11.3794  11.3794  11.4758  11.4758  11.8799  11.8799
    12.3299  12.3299  12.7906  12.7906  13.2257

          k =-0.5000 0.1493 0.3306 ( 12218 PWs)   bands (ev):

   -19.5399 -19.5399 -19.5284 -19.5284 -16.2500 -16.2500 -16.2033 -16.2033
   -13.0767 -13.0767 -13.0565 -13.0565 -12.9911 -12.9911 -12.9833 -12.9833
    -5.0133  -5.0133  -4.9964  -4.9964  -4.8213  -4.8213  -4.7999  -4.7999
    -4.7162  -4.7162  -4.7021  -4.7021  -1.5633  -1.5633  -1.4882  -1.4882
    -0.3062  -0.3062  -0.2400  -0.2400  -0.1186  -0.1186  -0.0567  -0.0567
    -0.0269  -0.0269   0.1899   0.1899   3.3614   3.3614   3.3963   3.3963
     3.6791   3.6791   3.8506   3.8506   3.9562   3.9562   4.0387   4.0387
     4.1326   4.1326   4.2160   4.2160   5.1048   5.1048   5.1318   5.1318
    11.0370  11.0370  11.2424  11.2424  11.6801  11.6801  11.9647  11.9647
    12.5715  12.5716  12.6989  12.6991  12.9999

          k =-0.5000-0.2986 0.0000 ( 12184 PWs)   bands (ev):

   -19.5510 -19.5510 -19.5179 -19.5179 -16.3008 -16.3008 -16.1496 -16.1496
   -13.0960 -13.0960 -13.0244 -13.0244 -13.0039 -13.0039 -12.9811 -12.9811
    -4.9881  -4.9881  -4.9587  -4.9587  -4.8464  -4.8464  -4.8077  -4.8077
    -4.7535  -4.7535  -4.7333  -4.7333  -1.6086  -1.6086  -1.3710  -1.3710
    -0.5565  -0.5565  -0.4306  -0.4306  -0.1995  -0.1995  -0.0028  -0.0028
     0.0921   0.0921   0.6012   0.6012   3.3036   3.3036   3.3897   3.3897
     3.5432   3.5432   3.7982   3.7982   3.9767   3.9767   4.0899   4.0899
     4.0946   4.0946   4.3900   4.3900   5.0851   5.0851   5.1938   5.1938
    10.8579  10.8579  11.2575  11.2575  11.5626  11.5626  11.7033  11.7033
    12.2308  12.2308  12.8761  12.8761  13.4127

          k =-0.5000-0.2986 0.1653 ( 12232 PWs)   bands (ev):

   -19.5477 -19.5477 -19.5209 -19.5209 -16.2870 -16.2870 -16.1647 -16.1647
   -13.0875 -13.0875 -13.0280 -13.0280 -13.0038 -13.0038 -12.9869 -12.9869
    -5.0047  -5.0047  -4.9830  -4.9830  -4.8291  -4.8291  -4.7843  -4.7843
    -4.7516  -4.7516  -4.7199  -4.7199  -1.6001  -1.6001  -1.4060  -1.4060
    -0.4623  -0.4623  -0.3920  -0.3920  -0.1844  -0.1844  -0.0150  -0.0150
     0.0531   0.0531   0.4808   0.4808   3.3646   3.3646   3.3806   3.3806
     3.5139   3.5139   3.8754   3.8754   3.9560   3.9560   4.0669   4.0669
     4.0917   4.0917   4.3410   4.3410   5.0925   5.0925   5.1845   5.1845
    10.8876  10.8876  11.3210  11.3210  11.4855  11.4855  11.8523  11.8523
    12.4739  12.4739  12.7216  12.7216  13.3227

          k =-0.5000-0.2986 0.3306 ( 12244 PWs)   bands (ev):

   -19.5393 -19.5393 -19.5290 -19.5290 -16.2502 -16.2502 -16.2035 -16.2035
   -13.0657 -13.0657 -13.0418 -13.0418 -13.0026 -13.0026 -12.9974 -12.9974
    -5.0225  -5.0225  -5.0149  -5.0149  -4.8042  -4.8042  -4.7842  -4.7842
    -4.7188  -4.7188  -4.7034  -4.7034  -1.5618  -1.5618  -1.4865  -1.4865
    -0.2972  -0.2972  -0.2625  -0.2625  -0.1276  -0.1276  -0.0440  -0.0440
    -0.0147  -0.0147   0.1880   0.1880   3.3739   3.3739   3.3933   3.3933
     3.6194   3.6194   3.8305   3.8305   4.0141   4.0141   4.0507   4.0507
     4.0974   4.0974   4.2145   4.2145   5.1199   5.1199   5.1571   5.1571
    11.0139  11.0139  11.2176  11.2176  11.6645  11.6645  11.9848  11.9849
    12.5312  12.5313  12.6832  12.6834  13.1260

     the Fermi energy is     8.4670 ev

!    total energy              =   -2320.09818755 Ry

     total all-electron energy =    -67197.689762 Ry
     estimated scf accuracy    <          6.2E-10 Ry
     smearing contrib. (-TS)   =      -0.00000000 Ry
     internal energy E=F+TS    =   -2320.09818755 Ry

     The total energy is F=E-TS. E is the sum of the following terms:
     one-electron contribution =    -233.86999623 Ry
     hartree contribution      =     191.40465775 Ry
     xc contribution           =    -189.92678984 Ry
     ewald contribution        =    -449.09466957 Ry
     one-center paw contrib.   =   -1638.61138965 Ry

     convergence has been achieved in  22 iterations

     Forces acting on atoms (cartesian axes, Ry/au):

     atom    1 type  1   force =    -0.00000000   -0.00015030   -0.00024650
     atom    2 type  1   force =    -0.00000000    0.00015030   -0.00024650
     atom    3 type  1   force =     0.00000000    0.00015030    0.00024650
     atom    4 type  1   force =     0.00000000   -0.00015030    0.00024650
     atom    5 type  2   force =     0.00000000   -0.01097412    0.01080843
     atom    6 type  2   force =     0.00000000    0.01097412    0.01080843
     atom    7 type  2   force =     0.00000000    0.01097412   -0.01080843
     atom    8 type  2   force =    -0.00000000   -0.01097412   -0.01080843
     atom    9 type  3   force =     0.00000000    0.03410661   -0.00472505
     atom   10 type  3   force =     0.00000000   -0.03410661   -0.00472505
     atom   11 type  3   force =     0.00000000   -0.03410661    0.00472505
     atom   12 type  3   force =    -0.00000000    0.03410661    0.00472505
     atom   13 type  3   force =     0.02510192   -0.01130588   -0.00394892
     atom   14 type  3   force =    -0.02510192    0.01130588   -0.00394892
     atom   15 type  3   force =     0.02510192    0.01130588    0.00394892
     atom   16 type  3   force =    -0.02510192   -0.01130588    0.00394892
     atom   17 type  3   force =    -0.02510192    0.01130588    0.00394892
     atom   18 type  3   force =     0.02510192   -0.01130588    0.00394892
     atom   19 type  3   force =    -0.02510192   -0.01130588   -0.00394892
     atom   20 type  3   force =     0.02510192    0.01130588   -0.00394892

     Total force =     0.108995     Total SCF correction =     0.000037

     Writing output data file ./out/pwscf.save/

     init_run     :     21.76s CPU     24.33s WALL (       1 calls)
     electrons    :    909.78s CPU    997.85s WALL (       1 calls)
     forces       :      9.34s CPU     10.00s WALL (       1 calls)

     Called by init_run:
     wfcinit      :     14.34s CPU     14.68s WALL (       1 calls)
     potinit      :      3.04s CPU      4.56s WALL (       1 calls)
     hinit0       :      3.55s CPU      3.62s WALL (       1 calls)

     Called by electrons:
     c_bands      :    727.38s CPU    761.15s WALL (      22 calls)
     sum_band     :    133.61s CPU    146.93s WALL (      22 calls)
     v_of_rho     :      2.39s CPU      3.27s WALL (      23 calls)
     newd         :     17.13s CPU     28.70s WALL (      23 calls)
     PAW_pot      :     30.44s CPU     60.90s WALL (      23 calls)
     mix_rho      :      0.77s CPU      0.87s WALL (      22 calls)

     Called by c_bands:
     init_us_2    :     16.13s CPU     16.28s WALL (    1656 calls)
     cegterg      :    680.63s CPU    713.21s WALL (     792 calls)

     Called by *egterg:
     cdiaghg      :     14.58s CPU     14.62s WALL (    3258 calls)
     h_psi        :    471.81s CPU    482.18s WALL (    3294 calls)
     s_psi        :     49.73s CPU     50.12s WALL (    3294 calls)
     g_psi        :      3.90s CPU      3.93s WALL (    2466 calls)

     Called by h_psi:
     h_psi:calbec :     44.07s CPU     44.16s WALL (    3294 calls)
     vloc_psi     :    371.87s CPU    373.11s WALL (    3294 calls)
     add_vuspsi   :     50.96s CPU     50.98s WALL (    3294 calls)

     General routines
     calbec       :     62.66s CPU     62.80s WALL (    4230 calls)
     fft          :      1.03s CPU      1.09s WALL (     308 calls)
     ffts         :      0.04s CPU      0.05s WALL (      45 calls)
     fftw         :    363.49s CPU    364.45s WALL (  362618 calls)
     interpolate  :      0.15s CPU      0.16s WALL (      23 calls)


     PWSCF        :  15m41.33s CPU  17m13.07s WALL


   This run was terminated on:  12:37:45  22Sep2021            

=------------------------------------------------------------------------------=
   JOB DONE.
=------------------------------------------------------------------------------=
