--------------------------------------------------------------------------
[[57664,1],0]: A high-performance Open MPI point-to-point messaging module
was unable to find any relevant network interfaces:

Module: OpenFabrics (openib)
  Host: bionano2

Another transport will be used instead, although this may result in
lower performance.

NOTE: You can disable this warning by setting the MCA parameter
btl_base_warn_component_unused to 0.
--------------------------------------------------------------------------

     Program PWSCF v.6.8 starts on 22Sep2021 at 11:34:18 

     This program is part of the open-source Quantum ESPRESSO suite
     for quantum simulation of materials; please cite
         "P. Giannozzi et al., J. Phys.:Condens. Matter 21 395502 (2009);
         "P. Giannozzi et al., J. Phys.:Condens. Matter 29 465901 (2017);
         "P. Giannozzi et al., J. Chem. Phys. 152 154105 (2020);
          URL http://www.quantum-espresso.org", 
     in publications or presentations arising from this work. More details at
     http://www.quantum-espresso.org/quote

     Parallel version (MPI), running on     1 processors

     MPI processes distributed on     1 nodes
     12747 MiB available memory on the printing compute node when the environment starts

     Reading input from k7208076uspaw.in

     Current dimensions of program PWSCF are:
     Max number of different atomic species (ntypx) = 10
     Max number of k-points (npk) =  40000
     Max angular momentum in pseudopotentials (lmaxx) =  4
     file C.pbe-n-kjpaw_psl.1.0.0.UPF: wavefunction(s)  2S 2P renormalized
     Message from routine setup:
     using ibrav=0 with symmetry is DISCOURAGED, use correct ibrav instead

     Subspace diagonalization in iterative solution of the eigenvalue problem:
     a serial algorithm will be used


     G-vector sticks info
     --------------------
     sticks:   dense  smooth     PW     G-vecs:    dense   smooth      PW
     Sum       11885    5937   1621               912245   322535   45917

     Using Slab Decomposition



     bravais-lattice index     =            0
     lattice parameter (alat)  =      10.0167  a.u.
     unit-cell volume          =    2387.1816 (a.u.)^3
     number of atoms/cell      =           32
     number of atomic types    =            3
     number of electrons       =        80.00
     number of Kohn-Sham states=           40
     kinetic-energy cutoff     =     100.0000  Ry
     charge density cutoff     =     800.0000  Ry
     scf convergence threshold =      6.4E-09
     mixing beta               =       0.4000
     number of iterations used =            8  plain     mixing
     Exchange-correlation= PBE
                           (   1   4   3   4   0   0   0)

     celldm(1)=  10.016682  celldm(2)=   0.000000  celldm(3)=   0.000000
     celldm(4)=   0.000000  celldm(5)=   0.000000  celldm(6)=   0.000000

     crystal axes: (cart. coord. in units of alat)
               a(1) = (   1.000000   0.000000   0.000000 )  
               a(2) = (   0.000000   1.859450   0.000000 )  
               a(3) = (  -0.183463   0.000000   1.277407 )  

     reciprocal axes: (cart. coord. in units 2 pi/alat)
               b(1) = (  1.000000 -0.000000  0.143621 )  
               b(2) = (  0.000000  0.537793 -0.000000 )  
               b(3) = (  0.000000  0.000000  0.782836 )  


     PseudoPot. # 1 for C  read from file:
     ../pseudo/C.pbe-n-kjpaw_psl.1.0.0.UPF
     MD5 check sum: 5d2aebdfa2cae82b50a7e79e9516da0f
     Pseudo is Projector augmented-wave + core cor, Zval =  4.0
     Generated using "atomic" code by A. Dal Corso  v.5.1
     Shape of augmentation charge: PSQ
     Using radial grid of 1073 points,  4 beta functions with: 
                l(1) =   0
                l(2) =   0
                l(3) =   1
                l(4) =   1
     Q(r) pseudized with 0 coefficients 


     PseudoPot. # 2 for Cl read from file:
     ../pseudo/Cl.pbe-n-rrkjus_psl.1.0.0.UPF
     MD5 check sum: 18cc83b4be324290a879bee3176034ba
     Pseudo is Ultrasoft + core correction, Zval =  7.0
     Generated using "atomic" code by A. Dal Corso  v.5.1
     Using radial grid of 1157 points,  6 beta functions with: 
                l(1) =   0
                l(2) =   0
                l(3) =   1
                l(4) =   1
                l(5) =   2
                l(6) =   2
     Q(r) pseudized with 0 coefficients 


     PseudoPot. # 3 for H  read from file:
     ../pseudo/H_ONCV_PBE-1.0.oncvpsp.upf
     MD5 check sum: 1790becc920ee074925cf490c71280fe
     Pseudo is Norm-conserving, Zval =  1.0
     Generated using ONCVPSP code by D. R. Hamann
     Using radial grid of 1166 points,  2 beta functions with: 
                l(1) =   0
                l(2) =   0

     atomic species   valence    mass     pseudopotential
        C              4.00    12.01100     C ( 1.00)
        Cl             7.00    35.45270     Cl( 1.00)
        H              1.00     1.00794     H ( 1.00)

      4 Sym. Ops., with inversion, found ( 2 have fractional translation)



   Cartesian axes

     site n.     atom                  positions (alat units)
         1           Cl  tau(   1) = (   0.0661932   1.7484035   1.0228070  )
         2           Cl  tau(   2) = (   0.1586127   0.8186786   0.8933035  )
         3           Cl  tau(   3) = (   0.7503440   0.1110463   0.2546000  )
         4           Cl  tau(   4) = (   0.6579246   1.0407713   0.3841035  )
         5           C   tau(   5) = (   0.7716774   1.6231138   0.9143679  )
         6           C   tau(   6) = (   0.4531285   0.6933889   1.0017425  )
         7           C   tau(   7) = (   0.0448599   0.2363361   0.3630391  )
         8           C   tau(   8) = (   0.3634087   1.1660610   0.2756644  )
         9           H   tau(   9) = (   0.7886743   1.5972674   0.7472831  )
        10           H   tau(  10) = (   0.4361316   0.6675425   1.1688274  )
        11           H   tau(  11) = (   0.0278630   0.2621824   0.5301239  )
        12           H   tau(  12) = (   0.3804057   1.1919074   0.1085796  )
        13           H   tau(  13) = (   0.6731368   1.7720557   0.9529456  )
        14           H   tau(  14) = (   0.5516691   0.8423308   0.9631648  )
        15           H   tau(  15) = (   0.1434005   0.0873941   0.3244614  )
        16           H   tau(  16) = (   0.2648682   1.0171191   0.3142421  )
        17           C   tau(  17) = (   0.6983386   1.3929139   1.0504117  )
        18           C   tau(  18) = (   0.5264673   0.4631890   0.8656987  )
        19           C   tau(  19) = (   0.1181987   0.4665360   0.2269952  )
        20           C   tau(  20) = (   0.2900700   1.3962609   0.4117083  )
        21           H   tau(  21) = (   0.5559998   1.3276472   0.9887130  )
        22           H   tau(  22) = (   0.6688061   0.3979223   0.9273975  )
        23           H   tau(  23) = (   0.2605374   0.5318027   0.2886940  )
        24           H   tau(  24) = (   0.1477312   1.4615276   0.3500095  )
        25           H   tau(  25) = (   0.8392479   1.2774421   1.0078741  )
        26           H   tau(  26) = (   0.3855580   0.3477171   0.9082363  )
        27           H   tau(  27) = (  -0.0227106   0.5820078   0.2695329  )
        28           H   tau(  28) = (   0.4309793   1.5117327   0.3691706  )
        29           H   tau(  29) = (   0.6826096   1.4206197   1.2212011  )
        30           H   tau(  30) = (   0.5421963   0.4908948   0.6949094  )
        31           H   tau(  31) = (   0.1339276   0.4388302   0.0562059  )
        32           H   tau(  32) = (   0.2743410   1.3685551   0.5824976  )

     number of k points=    20
                       cart. coord. in units 2pi/alat
        k(    1) = (   0.0000000   0.0000000   0.0000000), wk =   0.0416667
        k(    2) = (   0.0000000   0.0000000   0.1957090), wk =   0.0833333
        k(    3) = (   0.0000000   0.0000000  -0.3914179), wk =   0.0416667
        k(    4) = (   0.0000000   0.1792645   0.0000000), wk =   0.0833333
        k(    5) = (   0.0000000   0.1792645   0.1957090), wk =   0.1666667
        k(    6) = (   0.0000000   0.1792645  -0.3914179), wk =   0.0833333
        k(    7) = (   0.2500000   0.0000000   0.0359053), wk =   0.0833333
        k(    8) = (   0.2500000   0.0000000   0.2316143), wk =   0.0833333
        k(    9) = (   0.2500000   0.0000000  -0.3555126), wk =   0.0833333
        k(   10) = (   0.2500000   0.0000000  -0.1598037), wk =   0.0833333
        k(   11) = (   0.2500000   0.1792645   0.0359053), wk =   0.1666667
        k(   12) = (   0.2500000   0.1792645   0.2316143), wk =   0.1666667
        k(   13) = (   0.2500000   0.1792645  -0.3555126), wk =   0.1666667
        k(   14) = (   0.2500000   0.1792645  -0.1598037), wk =   0.1666667
        k(   15) = (  -0.5000000   0.0000000  -0.0718106), wk =   0.0416667
        k(   16) = (  -0.5000000   0.0000000   0.1238984), wk =   0.0833333
        k(   17) = (  -0.5000000   0.0000000  -0.4632285), wk =   0.0416667
        k(   18) = (  -0.5000000   0.1792645  -0.0718106), wk =   0.0833333
        k(   19) = (  -0.5000000   0.1792645   0.1238984), wk =   0.1666667
        k(   20) = (  -0.5000000   0.1792645  -0.4632285), wk =   0.0833333

     Dense  grid:   912245 G-vectors     FFT dimensions: (  96, 180, 120)

     Smooth grid:   322535 G-vectors     FFT dimensions: (  64, 120,  90)

     Estimated max dynamical RAM per process >       4.01 GB

     Initial potential from superposition of free atoms

     starting charge   79.99945, renormalised to   80.00000
     Starting wfcs are   68 randomized atomic wfcs
     Checking if some PAW data can be deallocated... 

     total cpu time spent up to now is       55.9 secs

     Self-consistent Calculation

     iteration #  1     ecut=   100.00 Ry     beta= 0.40
     Davidson diagonalization with overlap
     ethr =  1.00E-02,  avg # of iterations =  2.0

     total cpu time spent up to now is      110.8 secs

     total energy              =    -308.43027236 Ry
     estimated scf accuracy    <       5.35490809 Ry

     iteration #  2     ecut=   100.00 Ry     beta= 0.40
     Davidson diagonalization with overlap
     ethr =  6.69E-03,  avg # of iterations =  2.0

     total cpu time spent up to now is      160.7 secs

     total energy              =    -308.80466226 Ry
     estimated scf accuracy    <       0.58550736 Ry

     iteration #  3     ecut=   100.00 Ry     beta= 0.40
     Davidson diagonalization with overlap
     ethr =  7.32E-04,  avg # of iterations =  3.4

     total cpu time spent up to now is      213.5 secs

     total energy              =    -308.85911898 Ry
     estimated scf accuracy    <       0.11599769 Ry

     iteration #  4     ecut=   100.00 Ry     beta= 0.40
     Davidson diagonalization with overlap
     ethr =  1.45E-04,  avg # of iterations =  3.1

     total cpu time spent up to now is      271.6 secs

     total energy              =    -308.87759486 Ry
     estimated scf accuracy    <       0.02768874 Ry

     iteration #  5     ecut=   100.00 Ry     beta= 0.40
     Davidson diagonalization with overlap
     ethr =  3.46E-05,  avg # of iterations =  1.9

     total cpu time spent up to now is      317.5 secs

     total energy              =    -308.87645435 Ry
     estimated scf accuracy    <       0.00492970 Ry

     iteration #  6     ecut=   100.00 Ry     beta= 0.40
     Davidson diagonalization with overlap
     ethr =  6.16E-06,  avg # of iterations =  3.9

     total cpu time spent up to now is      382.1 secs

     total energy              =    -308.87975044 Ry
     estimated scf accuracy    <       0.00484722 Ry

     iteration #  7     ecut=   100.00 Ry     beta= 0.40
     Davidson diagonalization with overlap
     ethr =  6.06E-06,  avg # of iterations =  1.0

     total cpu time spent up to now is      423.9 secs

     total energy              =    -308.87849493 Ry
     estimated scf accuracy    <       0.00232175 Ry

     iteration #  8     ecut=   100.00 Ry     beta= 0.40
     Davidson diagonalization with overlap
     ethr =  2.90E-06,  avg # of iterations =  3.0

     total cpu time spent up to now is      481.1 secs

     total energy              =    -308.87935620 Ry
     estimated scf accuracy    <       0.00016350 Ry

     iteration #  9     ecut=   100.00 Ry     beta= 0.40
     Davidson diagonalization with overlap
     ethr =  2.04E-07,  avg # of iterations =  2.6

     total cpu time spent up to now is      529.6 secs

     total energy              =    -308.87928630 Ry
     estimated scf accuracy    <       0.00015358 Ry

     iteration # 10     ecut=   100.00 Ry     beta= 0.40
     Davidson diagonalization with overlap
     ethr =  1.92E-07,  avg # of iterations =  2.0

     total cpu time spent up to now is      582.5 secs

     total energy              =    -308.87931542 Ry
     estimated scf accuracy    <       0.00000214 Ry

     iteration # 11     ecut=   100.00 Ry     beta= 0.40
     Davidson diagonalization with overlap
     ethr =  2.68E-09,  avg # of iterations =  5.0

     total cpu time spent up to now is      653.9 secs

     total energy              =    -308.87931709 Ry
     estimated scf accuracy    <       0.00000015 Ry

     iteration # 12     ecut=   100.00 Ry     beta= 0.40
     Davidson diagonalization with overlap
     ethr =  1.88E-10,  avg # of iterations =  3.0

     total cpu time spent up to now is      717.4 secs

     total energy              =    -308.87931687 Ry
     estimated scf accuracy    <       0.00000071 Ry

     iteration # 13     ecut=   100.00 Ry     beta= 0.40
     Davidson diagonalization with overlap
     ethr =  1.88E-10,  avg # of iterations =  5.0

     total cpu time spent up to now is      784.8 secs

     total energy              =    -308.87931698 Ry
     estimated scf accuracy    <       0.00000001 Ry

     iteration # 14     ecut=   100.00 Ry     beta= 0.40
     Davidson diagonalization with overlap
     ethr =  1.29E-11,  avg # of iterations =  4.4

     total cpu time spent up to now is      853.0 secs

     End of self-consistent calculation

          k = 0.0000 0.0000 0.0000 ( 40321 PWs)   bands (ev):

   -16.5872 -16.4826 -16.4502 -16.4214 -13.8013 -13.7545 -13.7247 -13.7219
   -10.8764 -10.8119 -10.7878 -10.7356  -7.4068  -7.2540  -7.1909  -7.1849
    -6.5183  -6.4729  -6.3412  -6.2242  -5.0018  -4.8830  -4.8178  -4.7530
    -4.5185  -4.5128  -4.4239  -4.3463  -4.0131  -3.7920  -3.6137  -3.5773
    -1.9849  -1.9226  -1.8781  -1.8073  -1.7863  -1.7036  -1.6967  -1.6709

          k = 0.0000 0.0000 0.1957 ( 40314 PWs)   bands (ev):

   -16.5642 -16.4793 -16.4538 -16.4443 -13.7961 -13.7629 -13.7244 -13.7224
   -10.8631 -10.8012 -10.8003 -10.7476  -7.3792  -7.2391  -7.2350  -7.1816
    -6.4790  -6.4478  -6.3566  -6.2684  -4.9746  -4.8802  -4.8233  -4.7931
    -4.5157  -4.4586  -4.4431  -4.3538  -3.9868  -3.8352  -3.6065  -3.5848
    -1.9917  -1.9138  -1.8552  -1.8526  -1.7600  -1.7326  -1.6866  -1.6537

          k = 0.0000 0.0000-0.3914 ( 40286 PWs)   bands (ev):

   -16.5086 -16.5086 -16.4623 -16.4623 -13.7811 -13.7811 -13.7235 -13.7235
   -10.8313 -10.8313 -10.7751 -10.7751  -7.3103  -7.3103  -7.2063  -7.2063
    -6.4026  -6.4026  -6.3710  -6.3710  -4.9058  -4.9058  -4.8351  -4.8351
    -4.4856  -4.4856  -4.3869  -4.3869  -3.9184  -3.9184  -3.5971  -3.5971
    -1.9626  -1.9626  -1.8446  -1.8446  -1.7481  -1.7481  -1.6660  -1.6660

          k = 0.0000 0.1793 0.0000 ( 40283 PWs)   bands (ev):

   -16.5677 -16.5206 -16.4314 -16.4222 -13.7836 -13.7472 -13.7444 -13.7262
   -10.8615 -10.8293 -10.7748 -10.7487  -7.3795  -7.3079  -7.1889  -7.1826
    -6.4949  -6.4716  -6.2914  -6.2351  -4.9946  -4.9421  -4.7829  -4.7623
    -4.5553  -4.5484  -4.4202  -4.3802  -3.8925  -3.7182  -3.6995  -3.6140
    -1.9311  -1.8991  -1.8919  -1.8190  -1.7727  -1.7402  -1.6985  -1.6797

          k = 0.0000 0.1793 0.1957 ( 40283 PWs)   bands (ev):

   -16.5474 -16.5083 -16.4446 -16.4419 -13.7790 -13.7514 -13.7444 -13.7297
   -10.8488 -10.8182 -10.7870 -10.7609  -7.3554  -7.2934  -7.2144  -7.1934
    -6.4587  -6.4425  -6.3147  -6.2730  -4.9666  -4.9218  -4.8156  -4.8005
    -4.5348  -4.5058  -4.4395  -4.3938  -3.8735  -3.7652  -3.6686  -3.6229
    -1.9613  -1.9233  -1.8291  -1.8269  -1.7887  -1.7419  -1.6954  -1.6655

          k = 0.0000 0.1793-0.3914 ( 40276 PWs)   bands (ev):

   -16.5008 -16.5008 -16.4705 -16.4705 -13.7664 -13.7664 -13.7375 -13.7375
   -10.8187 -10.8187 -10.7889 -10.7889  -7.3021  -7.3021  -7.2250  -7.2250
    -6.3864  -6.3864  -6.3560  -6.3560  -4.9051  -4.9051  -4.8547  -4.8547
    -4.4904  -4.4904  -4.4350  -4.4350  -3.8249  -3.8249  -3.6431  -3.6431
    -1.9587  -1.9587  -1.8287  -1.8287  -1.7520  -1.7520  -1.6767  -1.6767

          k = 0.2500 0.0000 0.0359 ( 40312 PWs)   bands (ev):

   -16.5500 -16.4749 -16.4322 -16.4113 -13.8280 -13.7995 -13.7530 -13.7518
   -10.8900 -10.8586 -10.8013 -10.7177  -7.4306  -7.3004  -7.2665  -7.2051
    -6.5075  -6.3450  -6.3316  -6.1908  -4.9480  -4.8767  -4.8230  -4.7520
    -4.6326  -4.4711  -4.3506  -4.3071  -3.9535  -3.7968  -3.6032  -3.5621
    -1.9909  -1.8376  -1.8279  -1.7984  -1.7280  -1.6707  -1.6281  -1.6017

          k = 0.2500 0.0000 0.2316 ( 40335 PWs)   bands (ev):

   -16.5231 -16.4717 -16.4375 -16.4360 -13.8161 -13.8070 -13.7771 -13.7354
   -10.8788 -10.8692 -10.7854 -10.7352  -7.4226  -7.3173  -7.2994  -7.1557
    -6.4431  -6.3895  -6.2715  -6.2599  -4.9798  -4.8851  -4.8024  -4.7734
    -4.5493  -4.5136  -4.3688  -4.2932  -3.8944  -3.8540  -3.6180  -3.5571
    -1.9731  -1.9248  -1.7976  -1.7507  -1.7318  -1.6735  -1.6251  -1.6009

          k = 0.2500 0.0000-0.3555 ( 40285 PWs)   bands (ev):

   -16.4940 -16.4726 -16.4528 -16.4488 -13.8161 -13.8002 -13.7882 -13.7308
   -10.8858 -10.8683 -10.7671 -10.7543  -7.3808  -7.3402  -7.3325  -7.1701
    -6.5082  -6.3273  -6.2742  -6.2058  -4.9849  -4.8678  -4.8279  -4.7415
    -4.5763  -4.4820  -4.4054  -4.2569  -3.9237  -3.8290  -3.6119  -3.5635
    -1.9768  -1.9021  -1.8253  -1.7527  -1.7231  -1.6755  -1.6476  -1.5917

          k = 0.2500 0.0000-0.1598 ( 40297 PWs)   bands (ev):

   -16.5376 -16.4668 -16.4395 -16.4244 -13.8280 -13.7934 -13.7734 -13.7369
   -10.8949 -10.8599 -10.7937 -10.7260  -7.3986  -7.3258  -7.2943  -7.2118
    -6.5436  -6.3548  -6.2624  -6.1665  -4.9433  -4.8974  -4.7963  -4.7465
    -4.6408  -4.4545  -4.3970  -4.2616  -3.9693  -3.7869  -3.5836  -3.5809
    -1.9777  -1.8757  -1.8363  -1.7615  -1.7286  -1.6625  -1.6611  -1.5969

          k = 0.2500 0.1793 0.0359 ( 40311 PWs)   bands (ev):

   -16.5351 -16.4999 -16.4208 -16.4127 -13.8158 -13.7976 -13.7637 -13.7553
   -10.8705 -10.8277 -10.8191 -10.7517  -7.4000  -7.3302  -7.2627  -7.2249
    -6.4615  -6.3793  -6.2927  -6.2223  -4.9413  -4.9172  -4.7806  -4.7531
    -4.5902  -4.4514  -4.4304  -4.3505  -3.8588  -3.7330  -3.6770  -3.6022
    -1.9452  -1.8657  -1.8157  -1.7987  -1.7276  -1.7003  -1.6203  -1.6081

          k = 0.2500 0.1793 0.2316 ( 40308 PWs)   bands (ev):

   -16.5117 -16.4866 -16.4363 -16.4339 -13.8117 -13.7988 -13.7759 -13.7493
   -10.8589 -10.8370 -10.8069 -10.7668  -7.4016  -7.3532  -7.2628  -7.1955
    -6.3924  -6.3554  -6.3044  -6.2888  -4.9620  -4.9203  -4.7781  -4.7686
    -4.5207  -4.4808  -4.4139  -4.3790  -3.8137  -3.7853  -3.6591  -3.6151
    -1.9619  -1.9323  -1.7647  -1.7450  -1.7234  -1.6974  -1.6336  -1.6197

          k = 0.2500 0.1793-0.3555 ( 40317 PWs)   bands (ev):

   -16.4859 -16.4720 -16.4586 -16.4522 -13.8121 -13.7972 -13.7797 -13.7464
   -10.8574 -10.8419 -10.7952 -10.7820  -7.3791  -7.3567  -7.2914  -7.2127
    -6.4576  -6.3684  -6.2491  -6.2168  -4.9657  -4.9124  -4.7974  -4.7550
    -4.5502  -4.4648  -4.4366  -4.3211  -3.8372  -3.7589  -3.6583  -3.6189
    -1.9762  -1.9373  -1.7890  -1.7356  -1.6951  -1.6835  -1.6673  -1.6151

          k = 0.2500 0.1793-0.1598 ( 40325 PWs)   bands (ev):

   -16.5238 -16.4911 -16.4292 -16.4245 -13.8164 -13.7954 -13.7710 -13.7491
   -10.8712 -10.8275 -10.8183 -10.7588  -7.3770  -7.3291  -7.2957  -7.2425
    -6.4930  -6.4007  -6.2287  -6.1847  -4.9409  -4.9158  -4.7840  -4.7553
    -4.5968  -4.4791  -4.4112  -4.3111  -3.8694  -3.7155  -3.6818  -3.6042
    -1.9490  -1.9004  -1.8181  -1.7675  -1.7367  -1.6916  -1.6339  -1.6054

          k =-0.5000 0.0000-0.0718 ( 40322 PWs)   bands (ev):

   -16.4888 -16.4888 -16.4080 -16.4080 -13.8502 -13.8502 -13.7819 -13.7819
   -10.9077 -10.9077 -10.7524 -10.7524  -7.4071  -7.4071  -7.2610  -7.2610
    -6.4308  -6.4308  -6.1950  -6.1950  -4.8773  -4.8773  -4.7975  -4.7975
    -4.5895  -4.5895  -4.2632  -4.2632  -3.8347  -3.8347  -3.5769  -3.5769
    -1.9019  -1.9019  -1.7672  -1.7672  -1.6675  -1.6675  -1.5031  -1.5031

          k =-0.5000 0.0000 0.1239 ( 40338 PWs)   bands (ev):

   -16.4835 -16.4705 -16.4261 -16.4133 -13.8551 -13.8356 -13.8130 -13.7603
   -10.9096 -10.9088 -10.7707 -10.7383  -7.4261  -7.3828  -7.3598  -7.1894
    -6.5281  -6.2829  -6.2476  -6.1350  -4.9810  -4.8454  -4.7975  -4.7317
    -4.6566  -4.5157  -4.2993  -4.2213  -3.8732  -3.7890  -3.6025  -3.5612
    -1.9471  -1.8671  -1.8228  -1.7145  -1.6685  -1.6430  -1.5521  -1.4791

          k =-0.5000 0.0000-0.4632 ( 40330 PWs)   bands (ev):

   -16.4618 -16.4530 -16.4411 -16.4372 -13.8476 -13.8354 -13.8272 -13.7536
   -10.9114 -10.9100 -10.7795 -10.7337  -7.4263  -7.4103  -7.3713  -7.1749
    -6.5458  -6.2664  -6.2110  -6.1091  -5.0310  -4.8614  -4.7697  -4.7011
    -4.6830  -4.4810  -4.3129  -4.2021  -3.8867  -3.7678  -3.6169  -3.5576
    -1.9811  -1.8406  -1.8168  -1.7165  -1.6856  -1.6251  -1.5720  -1.4724

          k =-0.5000 0.1793-0.0718 ( 40338 PWs)   bands (ev):

   -16.4886 -16.4886 -16.4082 -16.4082 -13.8464 -13.8464 -13.7863 -13.7863
   -10.8722 -10.8722 -10.7879 -10.7879  -7.3835  -7.3835  -7.2884  -7.2884
    -6.3808  -6.3808  -6.2616  -6.2616  -4.8760  -4.8760  -4.7824  -4.7824
    -4.5098  -4.5098  -4.3393  -4.3393  -3.7698  -3.7698  -3.6365  -3.6365
    -1.8939  -1.8939  -1.7756  -1.7756  -1.6743  -1.6743  -1.5063  -1.5063

          k =-0.5000 0.1793 0.1239 ( 40325 PWs)   bands (ev):

   -16.4806 -16.4742 -16.4224 -16.4161 -13.8508 -13.8399 -13.8008 -13.7739
   -10.8803 -10.8642 -10.8051 -10.7775  -7.4170  -7.3894  -7.3250  -7.2371
    -6.4648  -6.3263  -6.2524  -6.1778  -4.9539  -4.8945  -4.7547  -4.7252
    -4.5684  -4.4433  -4.3861  -4.2866  -3.8097  -3.7249  -3.6710  -3.6058
    -1.9460  -1.9158  -1.7622  -1.7190  -1.6720  -1.6631  -1.5392  -1.5013

          k =-0.5000 0.1793-0.4632 ( 40304 PWs)   bands (ev):

   -16.4598 -16.4556 -16.4397 -16.4379 -13.8491 -13.8412 -13.8051 -13.7700
   -10.8841 -10.8598 -10.8152 -10.7747  -7.4306  -7.4196  -7.3196  -7.2249
    -6.4826  -6.3448  -6.1902  -6.1379  -4.9971  -4.9205  -4.7272  -4.6963
    -4.5906  -4.4093  -4.4067  -4.2625  -3.8252  -3.7008  -3.6907  -3.5937
    -1.9822  -1.9345  -1.7356  -1.7215  -1.6412  -1.6383  -1.5737  -1.5103

     highest occupied level (ev):    -1.4724

!    total energy              =    -308.87931698 Ry
     estimated scf accuracy    <          5.8E-09 Ry

     The total energy is the sum of the following terms:
     one-electron contribution =    -143.06262169 Ry
     hartree contribution      =      96.61701469 Ry
     xc contribution           =     -97.32768224 Ry
     ewald contribution        =    -115.71104416 Ry
     one-center paw contrib.   =     -49.39498358 Ry

     convergence has been achieved in  14 iterations

     Forces acting on atoms (cartesian axes, Ry/au):

     atom    1 type  2   force =     0.04683607   -0.00064345    0.00966508
     atom    2 type  2   force =    -0.04683607   -0.00064345   -0.00966508
     atom    3 type  2   force =    -0.04683607    0.00064345   -0.00966508
     atom    4 type  2   force =     0.04683607    0.00064345    0.00966508
     atom    5 type  1   force =     0.05881591   -0.03838758    0.35018671
     atom    6 type  1   force =    -0.05881591   -0.03838758   -0.35018671
     atom    7 type  1   force =    -0.05881591    0.03838758   -0.35018671
     atom    8 type  1   force =     0.05881591    0.03838758    0.35018671
     atom    9 type  3   force =     0.04458209   -0.06227032   -0.42758737
     atom   10 type  3   force =    -0.04458209   -0.06227032    0.42758737
     atom   11 type  3   force =    -0.04458209    0.06227032    0.42758737
     atom   12 type  3   force =     0.04458209    0.06227032   -0.42758737
     atom   13 type  3   force =    -0.15144144    0.16935394    0.03482562
     atom   14 type  3   force =     0.15144144    0.16935394   -0.03482562
     atom   15 type  3   force =     0.15144144   -0.16935394   -0.03482562
     atom   16 type  3   force =    -0.15144144   -0.16935394    0.03482562
     atom   17 type  1   force =     0.30085979    0.18427235   -0.13080522
     atom   18 type  1   force =    -0.30085979    0.18427235    0.13080522
     atom   19 type  1   force =    -0.30085979   -0.18427235    0.13080522
     atom   20 type  1   force =     0.30085979   -0.18427235   -0.13080522
     atom   21 type  3   force =    -0.40048133   -0.17582716   -0.17770473
     atom   22 type  3   force =     0.40048133   -0.17582716    0.17770473
     atom   23 type  3   force =     0.40048133    0.17582716    0.17770473
     atom   24 type  3   force =    -0.40048133    0.17582716   -0.17770473
     atom   25 type  3   force =     0.12607213   -0.13104886   -0.01747407
     atom   26 type  3   force =    -0.12607213   -0.13104886    0.01747407
     atom   27 type  3   force =    -0.12607213    0.13104886    0.01747407
     atom   28 type  3   force =     0.12607213    0.13104886   -0.01747407
     atom   29 type  3   force =    -0.02589651    0.05445330    0.35958274
     atom   30 type  3   force =     0.02589651    0.05445330   -0.35958274
     atom   31 type  3   force =     0.02589651   -0.05445330   -0.35958274
     atom   32 type  3   force =    -0.02589651   -0.05445330    0.35958274

     Total force =     1.899628     Total SCF correction =     0.000171

     Writing output data file ./out/pwscf.save/

     init_run     :     52.95s CPU     55.73s WALL (       1 calls)
     electrons    :    740.72s CPU    797.22s WALL (       1 calls)
     forces       :     31.52s CPU     33.26s WALL (       1 calls)

     Called by init_run:
     wfcinit      :     21.96s CPU     22.98s WALL (       1 calls)
     potinit      :     11.65s CPU     11.88s WALL (       1 calls)
     hinit0       :     16.63s CPU     16.73s WALL (       1 calls)

     Called by electrons:
     c_bands      :    563.78s CPU    578.90s WALL (      14 calls)
     sum_band     :    122.22s CPU    143.75s WALL (      14 calls)
     v_of_rho     :     16.78s CPU     18.44s WALL (      15 calls)
     newd         :     34.74s CPU     54.04s WALL (      15 calls)
     PAW_pot      :      4.20s CPU      4.22s WALL (      15 calls)
     mix_rho      :      1.82s CPU      2.10s WALL (      14 calls)

     Called by c_bands:
     init_us_2    :     19.26s CPU     19.35s WALL (     600 calls)
     cegterg      :    521.10s CPU    535.12s WALL (     280 calls)

     Called by *egterg:
     cdiaghg      :      1.57s CPU      1.59s WALL (    1129 calls)
     h_psi        :    397.39s CPU    403.80s WALL (    1149 calls)
     s_psi        :     40.38s CPU     40.55s WALL (    1149 calls)
     g_psi        :      3.06s CPU      3.06s WALL (     849 calls)

     Called by h_psi:
     h_psi:calbec :     33.71s CPU     34.08s WALL (    1149 calls)
     vloc_psi     :    318.51s CPU    319.06s WALL (    1149 calls)
     add_vuspsi   :     40.84s CPU     40.91s WALL (    1149 calls)

     General routines
     calbec       :     46.37s CPU     46.75s WALL (    1509 calls)
     fft          :      3.04s CPU      3.08s WALL (     204 calls)
     ffts         :      0.12s CPU      0.13s WALL (      29 calls)
     fftw         :    306.37s CPU    306.75s WALL (   81144 calls)
     interpolate  :      0.46s CPU      0.46s WALL (      15 calls)

     Parallel routines

     PWSCF        :  13m45.59s CPU  14m46.95s WALL


   This run was terminated on:  11:49: 5  22Sep2021            

=------------------------------------------------------------------------------=
   JOB DONE.
=------------------------------------------------------------------------------=
