
     Program PWSCF v.6.8 starts on 22Sep2021 at 13:47:35 

     This program is part of the open-source Quantum ESPRESSO suite
     for quantum simulation of materials; please cite
         "P. Giannozzi et al., J. Phys.:Condens. Matter 21 395502 (2009);
         "P. Giannozzi et al., J. Phys.:Condens. Matter 29 465901 (2017);
         "P. Giannozzi et al., J. Chem. Phys. 152 154105 (2020);
          URL http://www.quantum-espresso.org", 
     in publications or presentations arising from this work. More details at
     http://www.quantum-espresso.org/quote

     Serial version
     12839 MiB available memory on the printing compute node when the environment starts

     Waiting for input...
     Reading input from standard input

     Current dimensions of program PWSCF are:
     Max number of different atomic species (ntypx) = 10
     Max number of k-points (npk) =  40000
     Max angular momentum in pseudopotentials (lmaxx) =  4
     Message from routine volume:
     axis vectors are left-handed

     gamma-point specific algorithms are used
     Message from routine setup:
     using ibrav=0 with symmetry is DISCOURAGED, use correct ibrav instead

     G-vector sticks info
     --------------------
     sticks:   dense  smooth     PW     G-vecs:    dense   smooth      PW
     Sum       18959   11355   2829              1651793   767315   95811

     Using Slab Decomposition



     bravais-lattice index     =            0
     lattice parameter (alat)  =      35.5505  a.u.
     unit-cell volume          =   34587.0877 (a.u.)^3
     number of atoms/cell      =          256
     number of atomic types    =            2
     number of electrons       =      1034.00
     number of Kohn-Sham states=          620
     kinetic-energy cutoff     =      30.0000  Ry
     charge density cutoff     =     200.0000  Ry
     scf convergence threshold =      1.0E-09
     mixing beta               =       0.7000
     number of iterations used =            8  plain     mixing
     Exchange-correlation= SLA  PZ   NOGX NOGC
                           (   1   1   0   0   0   0   0)

     celldm(1)=  35.550466  celldm(2)=   0.000000  celldm(3)=   0.000000
     celldm(4)=   0.000000  celldm(5)=   0.000000  celldm(6)=   0.000000

     crystal axes: (cart. coord. in units of alat)
               a(1) = (   0.577350   0.577350  -0.577350 )  
               a(2) = (   0.577350  -0.577350   0.577350 )  
               a(3) = (  -0.577350   0.577350   0.577350 )  

     reciprocal axes: (cart. coord. in units 2 pi/alat)
               b(1) = (  0.866025  0.866025 -0.000000 )  
               b(2) = (  0.866025 -0.000000  0.866025 )  
               b(3) = ( -0.000000  0.866025  0.866025 )  


     PseudoPot. # 1 for Ge read from file:
     /home/ivan/pseudo/ge_lda_v1.uspp.F.UPF
     MD5 check sum: 575f587c0f86b3eee266efe92ef02c15
     Pseudo is Ultrasoft + core correction, Zval = 14.0
     Generated by new atomic code, or converted to UPF format
     Using radial grid of  873 points,  6 beta functions with: 
                l(1) =   0
                l(2) =   0
                l(3) =   1
                l(4) =   1
                l(5) =   2
                l(6) =   2
     Q(r) pseudized with  8 coefficients,  rinner =    1.400   1.400   1.400
                                                       1.400   1.400

     PseudoPot. # 2 for Si read from file:
     /home/ivan/pseudo/si_lda_v1.uspp.F.UPF
     MD5 check sum: ca10e49b2835512e91ee5100d37237e0
     Pseudo is Ultrasoft + core correction, Zval =  4.0
     Generated by new atomic code, or converted to UPF format
     Using radial grid of  899 points,  6 beta functions with: 
                l(1) =   0
                l(2) =   0
                l(3) =   1
                l(4) =   1
                l(5) =   2
                l(6) =   2
     Q(r) pseudized with  8 coefficients,  rinner =    0.900   0.900   0.900
                                                       0.900   0.900

     atomic species   valence    mass     pseudopotential
        Ge            14.00    72.61000     Ge( 1.00)
        Si             4.00    28.08550     Si( 1.00)

     24 Sym. Ops. (no inversion) found



   Cartesian axes

     site n.     atom                  positions (alat units)
         1           Ge  tau(   1) = (   0.0000000   0.0000000   0.0000000  )
         2           Si  tau(   2) = (   0.0000000   0.0000000   0.2886751  )
         3           Si  tau(   3) = (   0.0000000   0.0000000   0.5773503  )
         4           Si  tau(   4) = (   0.0000000   0.0000000   0.8660254  )
         5           Si  tau(   5) = (   0.0000000   0.2886751   0.0000000  )
         6           Si  tau(   6) = (   0.0000000   0.2886751   0.2886751  )
         7           Si  tau(   7) = (   0.0000000   0.2886751   0.5773503  )
         8           Si  tau(   8) = (   0.5773503  -0.2886751   0.2886751  )
         9           Si  tau(   9) = (   0.0000000   0.5773503   0.0000000  )
        10           Si  tau(  10) = (   0.0000000   0.5773503   0.2886751  )
        11           Si  tau(  11) = (   0.5773503   0.0000000   0.0000000  )
        12           Si  tau(  12) = (   0.5773503   0.0000000   0.2886751  )
        13           Si  tau(  13) = (   0.0000000   0.8660254   0.0000000  )
        14           Si  tau(  14) = (   0.5773503   0.2886751  -0.2886751  )
        15           Si  tau(  15) = (   0.5773503   0.2886751   0.0000000  )
        16           Si  tau(  16) = (   0.5773503   0.2886751   0.2886751  )
        17           Si  tau(  17) = (   0.2886751   0.0000000   0.0000000  )
        18           Si  tau(  18) = (   0.2886751   0.0000000   0.2886751  )
        19           Si  tau(  19) = (   0.2886751   0.0000000   0.5773503  )
        20           Si  tau(  20) = (  -0.2886751   0.5773503   0.2886751  )
        21           Si  tau(  21) = (   0.2886751   0.2886751   0.0000000  )
        22           Si  tau(  22) = (   0.2886751   0.2886751   0.2886751  )
        23           Si  tau(  23) = (   0.2886751   0.2886751   0.5773503  )
        24           Si  tau(  24) = (   0.2886751   0.2886751  -0.2886751  )
        25           Si  tau(  25) = (   0.2886751   0.5773503   0.0000000  )
        26           Si  tau(  26) = (   0.2886751   0.5773503   0.2886751  )
        27           Si  tau(  27) = (   0.8660254   0.0000000   0.0000000  )
        28           Si  tau(  28) = (   0.2886751   0.5773503  -0.2886751  )
        29           Si  tau(  29) = (  -0.2886751   0.2886751   0.5773503  )
        30           Si  tau(  30) = (   0.2886751  -0.2886751   0.2886751  )
        31           Si  tau(  31) = (   0.2886751  -0.2886751   0.5773503  )
        32           Si  tau(  32) = (  -0.2886751   0.2886751   0.2886751  )
        33           Si  tau(  33) = (   0.0000000   0.1443376   0.1443376  )
        34           Si  tau(  34) = (   0.0000000   0.1443376   0.4330127  )
        35           Si  tau(  35) = (   0.0000000   0.1443376   0.7216878  )
        36           Si  tau(  36) = (   0.5773503  -0.4330127   0.4330127  )
        37           Si  tau(  37) = (   0.0000000   0.4330127   0.1443376  )
        38           Si  tau(  38) = (   0.0000000   0.4330127   0.4330127  )
        39           Si  tau(  39) = (   0.5773503  -0.1443376   0.1443376  )
        40           Si  tau(  40) = (   0.5773503  -0.1443376   0.4330127  )
        41           Si  tau(  41) = (   0.0000000   0.7216878   0.1443376  )
        42           Si  tau(  42) = (   0.5773503   0.1443376  -0.1443376  )
        43           Si  tau(  43) = (   0.5773503   0.1443376   0.1443376  )
        44           Si  tau(  44) = (   0.5773503   0.1443376   0.4330127  )
        45           Si  tau(  45) = (   0.5773503   0.4330127  -0.4330127  )
        46           Si  tau(  46) = (   0.5773503   0.4330127  -0.1443376  )
        47           Si  tau(  47) = (   0.5773503   0.4330127   0.1443376  )
        48           Si  tau(  48) = (   0.5773503   0.4330127   0.4330127  )
        49           Si  tau(  49) = (   0.2886751   0.1443376   0.1443376  )
        50           Si  tau(  50) = (   0.2886751   0.1443376   0.4330127  )
        51           Si  tau(  51) = (   0.2886751   0.1443376   0.7216878  )
        52           Si  tau(  52) = (   0.2886751   0.1443376  -0.1443376  )
        53           Si  tau(  53) = (   0.2886751   0.4330127   0.1443376  )
        54           Si  tau(  54) = (   0.2886751   0.4330127   0.4330127  )
        55           Si  tau(  55) = (   0.8660254  -0.1443376   0.1443376  )
        56           Si  tau(  56) = (   0.2886751   0.4330127  -0.1443376  )
        57           Si  tau(  57) = (   0.2886751   0.7216878   0.1443376  )
        58           Si  tau(  58) = (   0.8660254   0.1443376  -0.1443376  )
        59           Si  tau(  59) = (   0.8660254   0.1443376   0.1443376  )
        60           Si  tau(  60) = (   0.2886751   0.7216878  -0.1443376  )
        61           Si  tau(  61) = (   0.2886751  -0.1443376   0.1443376  )
        62           Si  tau(  62) = (   0.2886751  -0.1443376   0.4330127  )
        63           Si  tau(  63) = (   0.2886751  -0.1443376   0.7216878  )
        64           Si  tau(  64) = (  -0.2886751   0.4330127   0.4330127  )
        65           Si  tau(  65) = (   0.1443376   0.0000000   0.1443376  )
        66           Si  tau(  66) = (   0.1443376   0.0000000   0.4330127  )
        67           Si  tau(  67) = (   0.1443376   0.0000000   0.7216878  )
        68           Si  tau(  68) = (  -0.4330127   0.5773503   0.4330127  )
        69           Si  tau(  69) = (   0.1443376   0.2886751   0.1443376  )
        70           Si  tau(  70) = (   0.1443376   0.2886751   0.4330127  )
        71           Si  tau(  71) = (   0.1443376   0.2886751   0.7216878  )
        72           Si  tau(  72) = (   0.1443376   0.2886751  -0.1443376  )
        73           Si  tau(  73) = (   0.1443376   0.5773503   0.1443376  )
        74           Si  tau(  74) = (   0.1443376   0.5773503   0.4330127  )
        75           Si  tau(  75) = (   0.7216878   0.0000000   0.1443376  )
        76           Si  tau(  76) = (   0.1443376   0.5773503  -0.1443376  )
        77           Si  tau(  77) = (   0.1443376   0.8660254   0.1443376  )
        78           Si  tau(  78) = (   0.7216878   0.2886751  -0.1443376  )
        79           Si  tau(  79) = (   0.7216878   0.2886751   0.1443376  )
        80           Si  tau(  80) = (   0.1443376   0.8660254  -0.1443376  )
        81           Si  tau(  81) = (   0.4330127   0.0000000   0.1443376  )
        82           Si  tau(  82) = (   0.4330127   0.0000000   0.4330127  )
        83           Si  tau(  83) = (  -0.1443376   0.5773503   0.1443376  )
        84           Si  tau(  84) = (  -0.1443376   0.5773503   0.4330127  )
        85           Si  tau(  85) = (   0.4330127   0.2886751   0.1443376  )
        86           Si  tau(  86) = (   0.4330127   0.2886751   0.4330127  )
        87           Si  tau(  87) = (  -0.1443376   0.8660254   0.1443376  )
        88           Si  tau(  88) = (   0.4330127   0.2886751  -0.1443376  )
        89           Si  tau(  89) = (   0.4330127   0.5773503   0.1443376  )
        90           Si  tau(  90) = (   0.4330127   0.5773503   0.4330127  )
        91           Si  tau(  91) = (   0.4330127   0.5773503  -0.4330127  )
        92           Si  tau(  92) = (   0.4330127   0.5773503  -0.1443376  )
        93           Si  tau(  93) = (  -0.1443376   0.2886751   0.7216878  )
        94           Si  tau(  94) = (   0.4330127  -0.2886751   0.4330127  )
        95           Si  tau(  95) = (  -0.1443376   0.2886751   0.1443376  )
        96           Si  tau(  96) = (  -0.1443376   0.2886751   0.4330127  )
        97           Si  tau(  97) = (   0.1443376   0.1443376   0.0000000  )
        98           Si  tau(  98) = (   0.1443376   0.1443376   0.2886751  )
        99           Si  tau(  99) = (   0.1443376   0.1443376   0.5773503  )
       100           Si  tau( 100) = (   0.1443376   0.1443376   0.8660254  )
       101           Si  tau( 101) = (   0.1443376   0.4330127   0.0000000  )
       102           Si  tau( 102) = (   0.1443376   0.4330127   0.2886751  )
       103           Si  tau( 103) = (   0.1443376   0.4330127   0.5773503  )
       104           Si  tau( 104) = (   0.7216878  -0.1443376   0.2886751  )
       105           Si  tau( 105) = (   0.1443376   0.7216878   0.0000000  )
       106           Si  tau( 106) = (   0.1443376   0.7216878   0.2886751  )
       107           Si  tau( 107) = (   0.7216878   0.1443376   0.0000000  )
       108           Si  tau( 108) = (   0.7216878   0.1443376   0.2886751  )
       109           Si  tau( 109) = (  -0.4330127   0.4330127   0.5773503  )
       110           Si  tau( 110) = (   0.1443376  -0.1443376   0.2886751  )
       111           Si  tau( 111) = (   0.1443376  -0.1443376   0.5773503  )
       112           Si  tau( 112) = (   0.1443376  -0.1443376   0.8660254  )
       113           Si  tau( 113) = (   0.4330127   0.1443376   0.0000000  )
       114           Si  tau( 114) = (   0.4330127   0.1443376   0.2886751  )
       115           Si  tau( 115) = (   0.4330127   0.1443376   0.5773503  )
       116           Si  tau( 116) = (  -0.1443376   0.7216878   0.2886751  )
       117           Si  tau( 117) = (   0.4330127   0.4330127   0.0000000  )
       118           Si  tau( 118) = (   0.4330127   0.4330127   0.2886751  )
       119           Si  tau( 119) = (   0.4330127   0.4330127   0.5773503  )
       120           Si  tau( 120) = (   0.4330127   0.4330127  -0.2886751  )
       121           Si  tau( 121) = (  -0.1443376   0.1443376   0.5773503  )
       122           Si  tau( 122) = (  -0.1443376   0.1443376   0.8660254  )
       123           Si  tau( 123) = (   0.4330127  -0.4330127   0.5773503  )
       124           Si  tau( 124) = (  -0.1443376   0.1443376   0.2886751  )
       125           Si  tau( 125) = (  -0.1443376   0.4330127   0.5773503  )
       126           Si  tau( 126) = (   0.4330127  -0.1443376   0.2886751  )
       127           Si  tau( 127) = (   0.4330127  -0.1443376   0.5773503  )
       128           Si  tau( 128) = (  -0.1443376   0.4330127   0.2886751  )
       129           Si  tau( 129) = (   0.2165064   0.2165064   0.0721688  )
       130           Si  tau( 130) = (   0.2165064   0.2165064   0.3608439  )
       131           Si  tau( 131) = (   0.2165064   0.2165064   0.6495191  )
       132           Si  tau( 132) = (   0.2165064   0.2165064  -0.2165064  )
       133           Si  tau( 133) = (   0.2165064   0.5051815   0.0721688  )
       134           Si  tau( 134) = (   0.2165064   0.5051815   0.3608439  )
       135           Si  tau( 135) = (   0.7938566  -0.0721688   0.0721688  )
       136           Si  tau( 136) = (   0.2165064   0.5051815  -0.2165064  )
       137           Si  tau( 137) = (   0.2165064   0.7938566   0.0721688  )
       138           Si  tau( 138) = (   0.7938566   0.2165064  -0.2165064  )
       139           Si  tau( 139) = (   0.7938566   0.2165064   0.0721688  )
       140           Si  tau( 140) = (   0.2165064   0.7938566  -0.2165064  )
       141           Si  tau( 141) = (   0.2165064  -0.0721688   0.0721688  )
       142           Si  tau( 142) = (   0.2165064  -0.0721688   0.3608439  )
       143           Si  tau( 143) = (   0.2165064  -0.0721688   0.6495191  )
       144           Si  tau( 144) = (  -0.3608439   0.5051815   0.3608439  )
       145           Si  tau( 145) = (   0.5051815   0.2165064   0.0721688  )
       146           Si  tau( 146) = (   0.5051815   0.2165064   0.3608439  )
       147           Si  tau( 147) = (  -0.0721688   0.7938566   0.0721688  )
       148           Si  tau( 148) = (   0.5051815   0.2165064  -0.2165064  )
       149           Si  tau( 149) = (   0.5051815   0.5051815   0.0721688  )
       150           Si  tau( 150) = (   0.5051815   0.5051815   0.3608439  )
       151           Si  tau( 151) = (   0.5051815   0.5051815  -0.5051815  )
       152           Si  tau( 152) = (   0.5051815   0.5051815  -0.2165064  )
       153           Si  tau( 153) = (  -0.0721688   0.2165064   0.6495191  )
       154           Si  tau( 154) = (   0.5051815  -0.3608439   0.3608439  )
       155           Si  tau( 155) = (  -0.0721688   0.2165064   0.0721688  )
       156           Si  tau( 156) = (  -0.0721688   0.2165064   0.3608439  )
       157           Si  tau( 157) = (   0.5051815  -0.0721688   0.0721688  )
       158           Si  tau( 158) = (   0.5051815  -0.0721688   0.3608439  )
       159           Si  tau( 159) = (  -0.0721688   0.5051815   0.0721688  )
       160           Si  tau( 160) = (  -0.0721688   0.5051815   0.3608439  )
       161           Si  tau( 161) = (   0.2165064   0.0721688   0.2165064  )
       162           Si  tau( 162) = (   0.2165064   0.0721688   0.5051815  )
       163           Si  tau( 163) = (   0.2165064   0.0721688   0.7938566  )
       164           Si  tau( 164) = (   0.2165064   0.0721688  -0.0721688  )
       165           Si  tau( 165) = (   0.2165064   0.3608439   0.2165064  )
       166           Si  tau( 166) = (   0.2165064   0.3608439   0.5051815  )
       167           Si  tau( 167) = (   0.7938566  -0.2165064   0.2165064  )
       168           Si  tau( 168) = (   0.2165064   0.3608439  -0.0721688  )
       169           Si  tau( 169) = (   0.2165064   0.6495191   0.2165064  )
       170           Si  tau( 170) = (   0.7938566   0.0721688  -0.0721688  )
       171           Si  tau( 171) = (   0.7938566   0.0721688   0.2165064  )
       172           Si  tau( 172) = (   0.2165064   0.6495191  -0.0721688  )
       173           Si  tau( 173) = (   0.2165064  -0.2165064   0.2165064  )
       174           Si  tau( 174) = (   0.2165064  -0.2165064   0.5051815  )
       175           Si  tau( 175) = (   0.2165064  -0.2165064   0.7938566  )
       176           Si  tau( 176) = (  -0.3608439   0.3608439   0.5051815  )
       177           Si  tau( 177) = (   0.5051815   0.0721688   0.2165064  )
       178           Si  tau( 178) = (   0.5051815   0.0721688   0.5051815  )
       179           Si  tau( 179) = (  -0.0721688   0.6495191   0.2165064  )
       180           Si  tau( 180) = (   0.5051815   0.0721688  -0.0721688  )
       181           Si  tau( 181) = (   0.5051815   0.3608439   0.2165064  )
       182           Si  tau( 182) = (   0.5051815   0.3608439   0.5051815  )
       183           Si  tau( 183) = (   0.5051815   0.3608439  -0.3608439  )
       184           Si  tau( 184) = (   0.5051815   0.3608439  -0.0721688  )
       185           Si  tau( 185) = (  -0.0721688   0.0721688   0.7938566  )
       186           Si  tau( 186) = (   0.5051815  -0.5051815   0.5051815  )
       187           Si  tau( 187) = (  -0.0721688   0.0721688   0.2165064  )
       188           Si  tau( 188) = (  -0.0721688   0.0721688   0.5051815  )
       189           Si  tau( 189) = (   0.5051815  -0.2165064   0.2165064  )
       190           Si  tau( 190) = (   0.5051815  -0.2165064   0.5051815  )
       191           Si  tau( 191) = (  -0.0721688   0.3608439   0.2165064  )
       192           Si  tau( 192) = (  -0.0721688   0.3608439   0.5051815  )
       193           Si  tau( 193) = (   0.0721688   0.2165064   0.2165064  )
       194           Si  tau( 194) = (   0.0721688   0.2165064   0.5051815  )
       195           Si  tau( 195) = (   0.0721688   0.2165064   0.7938566  )
       196           Si  tau( 196) = (   0.0721688   0.2165064  -0.0721688  )
       197           Si  tau( 197) = (   0.0721688   0.5051815   0.2165064  )
       198           Si  tau( 198) = (   0.0721688   0.5051815   0.5051815  )
       199           Si  tau( 199) = (   0.6495191  -0.0721688   0.2165064  )
       200           Si  tau( 200) = (   0.0721688   0.5051815  -0.0721688  )
       201           Si  tau( 201) = (   0.0721688   0.7938566   0.2165064  )
       202           Si  tau( 202) = (   0.6495191   0.2165064  -0.0721688  )
       203           Si  tau( 203) = (   0.6495191   0.2165064   0.2165064  )
       204           Si  tau( 204) = (   0.0721688   0.7938566  -0.0721688  )
       205           Si  tau( 205) = (   0.0721688  -0.0721688   0.2165064  )
       206           Si  tau( 206) = (   0.0721688  -0.0721688   0.5051815  )
       207           Si  tau( 207) = (   0.0721688  -0.0721688   0.7938566  )
       208           Si  tau( 208) = (  -0.5051815   0.5051815   0.5051815  )
       209           Si  tau( 209) = (   0.3608439   0.2165064   0.2165064  )
       210           Si  tau( 210) = (   0.3608439   0.2165064   0.5051815  )
       211           Si  tau( 211) = (  -0.2165064   0.7938566   0.2165064  )
       212           Si  tau( 212) = (   0.3608439   0.2165064  -0.0721688  )
       213           Si  tau( 213) = (   0.3608439   0.5051815   0.2165064  )
       214           Si  tau( 214) = (   0.3608439   0.5051815   0.5051815  )
       215           Si  tau( 215) = (   0.3608439   0.5051815  -0.3608439  )
       216           Si  tau( 216) = (   0.3608439   0.5051815  -0.0721688  )
       217           Si  tau( 217) = (  -0.2165064   0.2165064   0.7938566  )
       218           Si  tau( 218) = (   0.3608439  -0.3608439   0.5051815  )
       219           Si  tau( 219) = (  -0.2165064   0.2165064   0.2165064  )
       220           Si  tau( 220) = (  -0.2165064   0.2165064   0.5051815  )
       221           Si  tau( 221) = (   0.3608439  -0.0721688   0.2165064  )
       222           Si  tau( 222) = (   0.3608439  -0.0721688   0.5051815  )
       223           Si  tau( 223) = (  -0.2165064   0.5051815   0.2165064  )
       224           Si  tau( 224) = (  -0.2165064   0.5051815   0.5051815  )
       225           Si  tau( 225) = (   0.0721688   0.0721688   0.0721688  )
       226           Si  tau( 226) = (   0.0721688   0.0721688   0.3608439  )
       227           Si  tau( 227) = (   0.0721688   0.0721688   0.6495191  )
       228           Si  tau( 228) = (   0.0721688   0.0721688   0.9381942  )
       229           Si  tau( 229) = (   0.0721688   0.3608439   0.0721688  )
       230           Si  tau( 230) = (   0.0721688   0.3608439   0.3608439  )
       231           Si  tau( 231) = (   0.0721688   0.3608439   0.6495191  )
       232           Si  tau( 232) = (   0.6495191  -0.2165064   0.3608439  )
       233           Si  tau( 233) = (   0.0721688   0.6495191   0.0721688  )
       234           Si  tau( 234) = (   0.0721688   0.6495191   0.3608439  )
       235           Si  tau( 235) = (   0.6495191   0.0721688   0.0721688  )
       236           Si  tau( 236) = (   0.6495191   0.0721688   0.3608439  )
       237           Si  tau( 237) = (   0.0721688   0.9381942   0.0721688  )
       238           Si  tau( 238) = (   0.6495191   0.3608439  -0.2165064  )
       239           Si  tau( 239) = (   0.6495191   0.3608439   0.0721688  )
       240           Si  tau( 240) = (   0.6495191   0.3608439   0.3608439  )
       241           Si  tau( 241) = (   0.3608439   0.0721688   0.0721688  )
       242           Si  tau( 242) = (   0.3608439   0.0721688   0.3608439  )
       243           Si  tau( 243) = (   0.3608439   0.0721688   0.6495191  )
       244           Si  tau( 244) = (  -0.2165064   0.6495191   0.3608439  )
       245           Si  tau( 245) = (   0.3608439   0.3608439   0.0721688  )
       246           Si  tau( 246) = (   0.3608439   0.3608439   0.3608439  )
       247           Si  tau( 247) = (   0.3608439   0.3608439   0.6495191  )
       248           Si  tau( 248) = (   0.3608439   0.3608439  -0.2165064  )
       249           Si  tau( 249) = (   0.3608439   0.6495191   0.0721688  )
       250           Si  tau( 250) = (   0.3608439   0.6495191   0.3608439  )
       251           Si  tau( 251) = (   0.9381942   0.0721688   0.0721688  )
       252           Si  tau( 252) = (   0.3608439   0.6495191  -0.2165064  )
       253           Si  tau( 253) = (  -0.2165064   0.3608439   0.6495191  )
       254           Si  tau( 254) = (   0.3608439  -0.2165064   0.3608439  )
       255           Si  tau( 255) = (   0.3608439  -0.2165064   0.6495191  )
       256           Si  tau( 256) = (  -0.2165064   0.3608439   0.3608439  )

     number of k points=     1  Gaussian smearing, width (Ry)=  0.0010
                       cart. coord. in units 2pi/alat
        k(    1) = (   0.0000000   0.0000000   0.0000000), wk =   2.0000000

     Dense  grid:   825897 G-vectors     FFT dimensions: ( 162, 162, 162)

     Smooth grid:   383658 G-vectors     FFT dimensions: ( 125, 125, 125)

     Estimated max dynamical RAM per process >       9.81 GB

     Initial potential from superposition of free atoms

     starting charge 1033.84552, renormalised to 1034.00000
     Starting wfcs are 1029 randomized atomic wfcs

     total cpu time spent up to now is       82.2 secs

     Self-consistent Calculation

     iteration #  1     ecut=    30.00 Ry     beta= 0.70
     Davidson diagonalization with overlap
     ethr =  1.00E-02,  avg # of iterations =  3.0

     Threshold (ethr) on eigenvalues was too large:
     Diagonalizing with lowered threshold

     Davidson diagonalization with overlap
     ethr =  6.63E-04,  avg # of iterations =  2.0

     total cpu time spent up to now is      399.3 secs

     total energy              =   -2662.41185856 Ry
     estimated scf accuracy    <       7.38793707 Ry

     iteration #  2     ecut=    30.00 Ry     beta= 0.70
     Davidson diagonalization with overlap
     ethr =  7.15E-04,  avg # of iterations =  1.0

     total cpu time spent up to now is      529.7 secs

     total energy              =   -2662.79280715 Ry
     estimated scf accuracy    <       0.25052552 Ry

     iteration #  3     ecut=    30.00 Ry     beta= 0.70
     Davidson diagonalization with overlap
     ethr =  2.42E-05,  avg # of iterations =  6.0

     total cpu time spent up to now is      726.9 secs

     total energy              =   -2662.82474079 Ry
     estimated scf accuracy    <       0.04858602 Ry

     iteration #  4     ecut=    30.00 Ry     beta= 0.70
     Davidson diagonalization with overlap
     ethr =  4.70E-06,  avg # of iterations = 18.0

     total cpu time spent up to now is     1007.2 secs

     total energy              =   -2662.80757783 Ry
     estimated scf accuracy    <       0.41174672 Ry

     iteration #  5     ecut=    30.00 Ry     beta= 0.70
     Davidson diagonalization with overlap
     ethr =  4.70E-06,  avg # of iterations =  9.0

     total cpu time spent up to now is     1223.6 secs

     total energy              =   -2662.85240910 Ry
     estimated scf accuracy    <       0.01075789 Ry

     iteration #  6     ecut=    30.00 Ry     beta= 0.70
     Davidson diagonalization with overlap
     ethr =  1.04E-06,  avg # of iterations =  2.0

     total cpu time spent up to now is     1380.3 secs

     total energy              =   -2662.85431840 Ry
     estimated scf accuracy    <       0.00075508 Ry

     iteration #  7     ecut=    30.00 Ry     beta= 0.70
     Davidson diagonalization with overlap
     ethr =  7.30E-08,  avg # of iterations =  4.0

     total cpu time spent up to now is     1574.6 secs

     total energy              =   -2662.85453582 Ry
     estimated scf accuracy    <       0.00025844 Ry

     iteration #  8     ecut=    30.00 Ry     beta= 0.70
     Davidson diagonalization with overlap
     ethr =  2.50E-08,  avg # of iterations =  2.0

     total cpu time spent up to now is     1731.6 secs

     total energy              =   -2662.85457677 Ry
     estimated scf accuracy    <       0.00002947 Ry

     iteration #  9     ecut=    30.00 Ry     beta= 0.70
     Davidson diagonalization with overlap
     ethr =  2.85E-09,  avg # of iterations =  4.0

     total cpu time spent up to now is     1912.8 secs

     total energy              =   -2662.85458492 Ry
     estimated scf accuracy    <       0.00001121 Ry

     iteration # 10     ecut=    30.00 Ry     beta= 0.70
     Davidson diagonalization with overlap
     ethr =  1.08E-09,  avg # of iterations =  4.0

     total cpu time spent up to now is     2067.7 secs

     total energy              =   -2662.85458533 Ry
     estimated scf accuracy    <       0.00000615 Ry

     iteration # 11     ecut=    30.00 Ry     beta= 0.70
     Davidson diagonalization with overlap
     ethr =  5.95E-10,  avg # of iterations =  2.0

     total cpu time spent up to now is     2218.3 secs

     total energy              =   -2662.85458605 Ry
     estimated scf accuracy    <       0.00000101 Ry

     iteration # 12     ecut=    30.00 Ry     beta= 0.70
     Davidson diagonalization with overlap
     ethr =  9.74E-11,  avg # of iterations =  4.0

     total cpu time spent up to now is     2382.5 secs

     total energy              =   -2662.85458625 Ry
     estimated scf accuracy    <       0.00000005 Ry

     iteration # 13     ecut=    30.00 Ry     beta= 0.70
     Davidson diagonalization with overlap
     ethr =  5.08E-12,  avg # of iterations =  4.0

     total cpu time spent up to now is     2574.0 secs

     total energy              =   -2662.85458627 Ry
     estimated scf accuracy    <       0.00000006 Ry

     iteration # 14     ecut=    30.00 Ry     beta= 0.70
     Davidson diagonalization with overlap
     ethr =  5.08E-12,  avg # of iterations =  3.0

     total cpu time spent up to now is     2730.1 secs

     total energy              =   -2662.85458627 Ry
     estimated scf accuracy    <       0.00000004 Ry

     iteration # 15     ecut=    30.00 Ry     beta= 0.70
     Davidson diagonalization with overlap
     ethr =  4.14E-12,  avg # of iterations =  3.0

     total cpu time spent up to now is     2881.8 secs

     total energy              =   -2662.85458628 Ry
     estimated scf accuracy    <          7.5E-09 Ry

     iteration # 16     ecut=    30.00 Ry     beta= 0.70
     Davidson diagonalization with overlap
     ethr =  7.23E-13,  avg # of iterations =  2.0

     total cpu time spent up to now is     3034.9 secs

     End of self-consistent calculation

          k = 0.0000 0.0000 0.0000 ( 47906 PWs)   bands (ev):

   -18.3045 -18.3045 -18.3045 -18.2743 -18.2743  -5.9499  -5.4952  -5.4014
    -5.4014  -5.4014  -5.4008  -5.4008  -5.4008  -5.4008  -5.4008  -5.4007
    -5.4007  -5.4007  -4.9067  -4.8598  -4.8598  -4.8598  -4.8594  -4.8594
    -4.5316  -4.3860  -4.3860  -4.3860  -4.3839  -4.3839  -4.3839  -4.3839
    -4.3839  -4.3839  -4.3839  -4.3839  -4.3839  -4.3838  -4.3838  -4.3838
    -4.3838  -4.3838  -4.3837  -4.3837  -4.3837  -4.3837  -4.3837  -4.3837
    -3.9618  -3.8974  -3.8974  -3.8974  -3.8963  -3.8963  -3.8963  -3.8963
    -3.8963  -3.8963  -3.8963  -3.8963  -3.6333  -3.6046  -3.6046  -3.6046
    -3.4576  -3.3508  -3.3508  -3.3508  -3.3481  -3.3481  -3.3480  -3.3480
    -3.3480  -3.3479  -3.3479  -3.3479  -3.3479  -3.3479  -3.3479  -3.3479
    -3.3479  -3.3479  -3.3479  -3.3479  -3.3479  -3.3479  -3.3478  -3.3478
    -3.1403  -3.0682  -3.0682  -3.0682  -3.0671  -3.0671  -3.0671  -3.0670
    -3.0670  -3.0669  -3.0669  -3.0669  -3.0669  -3.0668  -3.0668  -3.0668
    -3.0668  -3.0668  -3.0668  -3.0668  -3.0668  -3.0668  -3.0668  -3.0668
    -2.2580  -2.2085  -2.2085  -2.2085  -2.2080  -2.2080  -2.2080  -2.2078
    -2.2078  -2.2078  -2.2077  -2.2077  -1.8253  -1.7998  -1.7998  -1.7998
    -1.7990  -1.7990  -1.6725  -1.6330  -1.6330  -1.6330  -1.6323  -1.6323
    -1.6323  -1.6321  -1.6321  -1.6321  -1.6321  -1.6321  -1.2504  -1.2123
    -1.2123  -1.2123  -1.2110  -1.2110  -1.2110  -1.2109  -1.2109  -1.2108
    -1.2108  -1.2108  -0.9791  -0.9725  -0.9725  -0.9725  -0.8307  -0.7857
    -0.7857  -0.7857  -0.7809  -0.7809  -0.7809  -0.7808  -0.7808  -0.7807
    -0.7807  -0.7807  -0.7807  -0.7807  -0.7807  -0.7806  -0.7806  -0.7806
    -0.7806  -0.7806  -0.7806  -0.7805  -0.7805  -0.7805  -0.0242   0.0497
     0.0497   0.0497   0.0506   0.0506   0.0506   0.0508   0.0508   0.0508
     0.0508   0.0508   0.0508   0.0508   0.0508   0.0509   0.0509   0.0509
     0.0509   0.0509   0.0509   0.0512   0.0512   0.0512   0.4985   0.5294
     0.5294   0.5294   0.5303   0.5303   0.5303   0.5305   0.5305   0.5311
     0.5311   0.5311   0.6840   0.7158   0.7158   0.7158   0.7191   0.7196
     0.7196   0.7196   0.7196   0.7196   0.7196   0.7196   0.7196   0.7196
     0.7196   0.7196   0.7197   0.7197   0.7197   0.7197   0.7197   0.7213
     0.7213   0.7213   1.6882   1.6882   1.6882   1.6910   1.6910   1.6910
     1.6910   1.6910   1.6910   1.6911   1.6916   1.6916   2.1417   2.1417
     2.1417   2.1440   2.1440   2.1440   2.1442   2.1442   2.1442   2.1442
     2.1449   2.1449   2.2398   2.2407   2.2407   2.2407   2.2430   2.2430
     2.2430   2.2434   2.2434   2.2437   2.2437   2.2437   2.4696   2.4891
     2.4891   2.4900   2.4900   2.4900   2.5380   2.5467   2.5467   2.5467
     2.5498   2.5498   2.5498   2.5501   2.5501   2.5501   2.5501   2.5501
     2.5502   2.5502   2.5502   2.5502   2.5502   2.5502   2.5503   2.5512
     2.5512   2.5516   2.5516   2.5516   2.6374   2.6374   2.6374   2.6381
     2.6402   2.6402   2.6402   2.6411   2.6411   2.6411   2.6411   2.6411
     2.6411   2.6411   2.6411   2.6412   2.6412   2.6412   2.6413   2.6419
     2.6419   2.6426   2.6426   2.6426   3.1683   3.1683   3.1683   3.1684
     3.1684   3.1684   3.2489   3.2489   3.2489   3.2504   3.2504   3.2504
     3.2510   3.2512   3.2512   3.2512   3.2514   3.2514   3.2514   3.2514
     3.2514   3.2515   3.2516   3.2516   3.2516   3.2526   3.2526   3.2526
     3.2531   3.2531   3.3013   3.3210   3.3210   3.3210   3.3215   3.3215
     3.3215   3.3216   3.3216   3.3244   3.3244   3.3244   3.5957   3.5957
     3.5957   3.5962   3.5962   3.5962   3.5965   3.5965   3.5965   3.5966
     3.5970   3.5970   3.8550   3.8550   3.8550   3.8550   3.8550   3.8550
     3.8558   3.8561   3.8561   3.8561   3.8561   3.8561   3.8561   3.8561
     3.8562   3.8562   3.8562   3.8562   3.8562   3.8578   3.8578   3.8578
     3.8581   3.8581   4.1295   4.1295   4.1295   4.1299   4.1299   4.1299
     4.1304   4.1304   4.1304   4.1324   4.1324   4.1324   4.1581   4.1722
     4.1722   4.1722   4.1726   4.1726   4.1726   4.1728   4.1730   4.1730
     4.1730   4.1730   4.1730   4.1731   4.1731   4.1731   4.1731   4.1731
     4.1731   4.1741   4.1741   4.1776   4.1776   4.1776   4.3793   4.3802
     4.3802   4.3802   4.3809   4.3809   4.3809   4.3811   4.3811   4.3839
     4.3839   4.3839   4.4340   4.4340   4.4340   4.4344   4.4344   4.4344
     4.4352   4.4352   4.4353   4.4353   4.4353   4.4353   4.4354   4.4354
     4.4354   4.4354   4.4354   4.4354   4.4354   4.4358   4.4358   4.4403
     4.4403   4.4403   4.6953   4.6953   4.6953   4.6959   4.6959   4.6959
     4.6959   4.6968   4.6968   4.6977   4.6977   4.6977   4.8260   4.8260
     4.8260   4.8268   4.8268   4.8282   4.8282   4.8282   5.7318   5.7318
     5.7318   5.7320   5.7320   5.7320   5.7320   5.7322   5.7322   5.7375
     5.7375   5.7375   6.0251   6.0251   6.0251   6.6256   6.6340   6.6340
     6.6340   6.6342   6.6342   7.0616   7.0688   7.0688   7.0705   7.0705
     7.0705   7.1187   7.1293   7.1293   7.1293   7.1296   7.1296   7.1296
     7.1351   7.1351   7.1351   7.1358   7.1358   7.4305   7.4461   7.4461
     7.4461   7.8719   7.8885   7.8885   7.8885   7.8893   7.8893   7.8893
     7.8895   7.8895   7.8895   7.8895   7.8895   7.8895   7.8895   7.8895
     7.8896   7.8907   7.8907   7.8907   7.8960   7.8960   7.9016   7.9016
     7.9016   8.1562   8.1849   8.1860   8.1860   8.1860   8.1861   8.1861
     8.1861   8.1863   8.1863   8.1863   8.1863   8.1863   8.1865   8.1865
     8.1865   8.1875   8.1875   8.1875   8.1937   8.1937   8.1977   8.1977
     8.1977   8.3767   8.3891   8.3891   8.3891   8.3898   8.3898   8.3898
     8.3953   8.3953   8.3954   8.3954   8.3954   8.5514   8.5514   8.5514
     8.5630   8.5791   8.5792   8.5793   8.5793   8.5794   8.5795   8.5896
     8.5899   8.5900   8.5958   8.5959

     the Fermi energy is     6.1845 ev

!    total energy              =   -2662.85458628 Ry
     estimated scf accuracy    <          9.3E-10 Ry
     smearing contrib. (-TS)   =      -0.00000000 Ry
     internal energy E=F+TS    =   -2662.85458628 Ry

     The total energy is F=E-TS. E is the sum of the following terms:
     one-electron contribution =     431.29566849 Ry
     hartree contribution      =     259.72606153 Ry
     xc contribution           =   -1153.03136247 Ry
     ewald contribution        =   -2200.84495383 Ry

     convergence has been achieved in  16 iterations

     init_run     :     75.22s CPU     82.04s WALL (       1 calls)
     electrons    :   2743.47s CPU   2952.72s WALL (       1 calls)

     Called by init_run:
     wfcinit      :     66.94s CPU     70.06s WALL (       1 calls)
     potinit      :      0.43s CPU      0.79s WALL (       1 calls)
     hinit0       :      1.93s CPU      2.09s WALL (       1 calls)

     Called by electrons:
     c_bands      :   2223.20s CPU   2297.57s WALL (      17 calls)
     sum_band     :    414.29s CPU    487.02s WALL (      17 calls)
     v_of_rho     :      3.40s CPU      4.34s WALL (      17 calls)
     newd         :    102.13s CPU    165.84s WALL (      17 calls)
     mix_rho      :      3.77s CPU      4.26s WALL (      17 calls)

     Called by c_bands:
     init_us_2    :     22.89s CPU     29.01s WALL (      35 calls)
     regterg      :   2115.03s CPU   2184.28s WALL (      17 calls)

     Called by *egterg:
     rdiaghg      :     26.85s CPU     26.90s WALL (      89 calls)
     h_psi        :   1401.96s CPU   1428.28s WALL (      91 calls)
     s_psi        :    338.07s CPU    342.72s WALL (      91 calls)
     g_psi        :      3.20s CPU      3.21s WALL (      73 calls)

     Called by h_psi:
     h_psi:calbec :    351.85s CPU    369.67s WALL (      91 calls)
     vloc_psi     :    705.89s CPU    708.32s WALL (      91 calls)
     add_vuspsi   :    339.05s CPU    344.05s WALL (      91 calls)

     General routines
     calbec       :    467.68s CPU    490.18s WALL (     108 calls)
     fft          :      4.24s CPU      4.29s WALL (     101 calls)
     ffts         :      0.64s CPU      0.64s WALL (      34 calls)
     fftw         :    624.47s CPU    625.04s WALL (   34732 calls)
     interpolate  :      1.52s CPU      1.57s WALL (      17 calls)


     PWSCF        :  46m58.87s CPU  50m35.10s WALL


   This run was terminated on:  14:38:10  22Sep2021            

=------------------------------------------------------------------------------=
   JOB DONE.
=------------------------------------------------------------------------------=
